 Entering Gaussian System, Link 0=/home/ubuntu/g09/g09
 Input=p-NO2-Ph-OTs-RB3LYP-aug-cc-pVDZ-T85.gjf
 Output=p-NO2-Ph-OTs-RB3LYP-aug-cc-pVDZ-T85.log
 Initial command:
 /home/ubuntu/g09/l1.exe /home/ubuntu/g09/Gau-14385.inp -scrdir=/home/ubuntu/g09/
 Entering Link 1 = /home/ubuntu/g09/l1.exe PID=     14387.
  
 Copyright (c) 1988,1990,1992,1993,1995,1998,2003,2009,2010,
            Gaussian, Inc.  All Rights Reserved.
  
 This is part of the Gaussian(R) 09 program.  It is based on
 the Gaussian(R) 03 system (copyright 2003, Gaussian, Inc.),
 the Gaussian(R) 98 system (copyright 1998, Gaussian, Inc.),
 the Gaussian(R) 94 system (copyright 1995, Gaussian, Inc.),
 the Gaussian 92(TM) system (copyright 1992, Gaussian, Inc.),
 the Gaussian 90(TM) system (copyright 1990, Gaussian, Inc.),
 the Gaussian 88(TM) system (copyright 1988, Gaussian, Inc.),
 the Gaussian 86(TM) system (copyright 1986, Carnegie Mellon
 University), and the Gaussian 82(TM) system (copyright 1983,
 Carnegie Mellon University). Gaussian is a federally registered
 trademark of Gaussian, Inc.
  
 This software contains proprietary and confidential information,
 including trade secrets, belonging to Gaussian, Inc.
  
 This software is provided under written license and may be
 used, copied, transmitted, or stored only in accord with that
 written license.
  
 The following legend is applicable only to US Government
 contracts under FAR:
  
                    RESTRICTED RIGHTS LEGEND
  
 Use, reproduction and disclosure by the US Government is
 subject to restrictions as set forth in subparagraphs (a)
 and (c) of the Commercial Computer Software - Restricted
 Rights clause in FAR 52.227-19.
  
 Gaussian, Inc.
 340 Quinnipiac St., Bldg. 40, Wallingford CT 06492
  
  
 ---------------------------------------------------------------
 Warning -- This program may not be used in any manner that
 competes with the business of Gaussian, Inc. or will provide
 assistance to any competitor of Gaussian, Inc.  The licensee
 of this program is prohibited from giving any competitor of
 Gaussian, Inc. access to this program.  By using this program,
 the user acknowledges that Gaussian, Inc. is engaged in the
 business of creating and licensing software in the field of
 computational chemistry and represents and warrants to the
 licensee that it is not a competitor of Gaussian, Inc. and that
 it will not use this program in any manner prohibited above.
 ---------------------------------------------------------------
  

 Cite this work as:
 Gaussian 09, Revision B.01,
 M. J. Frisch, G. W. Trucks, H. B. Schlegel, G. E. Scuseria, 
 M. A. Robb, J. R. Cheeseman, G. Scalmani, V. Barone, B. Mennucci, 
 G. A. Petersson, H. Nakatsuji, M. Caricato, X. Li, H. P. Hratchian, 
 A. F. Izmaylov, J. Bloino, G. Zheng, J. L. Sonnenberg, M. Hada, 
 M. Ehara, K. Toyota, R. Fukuda, J. Hasegawa, M. Ishida, T. Nakajima, 
 Y. Honda, O. Kitao, H. Nakai, T. Vreven, J. A. Montgomery, Jr., 
 J. E. Peralta, F. Ogliaro, M. Bearpark, J. J. Heyd, E. Brothers, 
 K. N. Kudin, V. N. Staroverov, T. Keith, R. Kobayashi, J. Normand, 
 K. Raghavachari, A. Rendell, J. C. Burant, S. S. Iyengar, J. Tomasi, 
 M. Cossi, N. Rega, J. M. Millam, M. Klene, J. E. Knox, J. B. Cross, 
 V. Bakken, C. Adamo, J. Jaramillo, R. Gomperts, R. E. Stratmann, 
 O. Yazyev, A. J. Austin, R. Cammi, C. Pomelli, J. W. Ochterski, 
 R. L. Martin, K. Morokuma, V. G. Zakrzewski, G. A. Voth, 
 P. Salvador, J. J. Dannenberg, S. Dapprich, A. D. Daniels, 
 O. Farkas, J. B. Foresman, J. V. Ortiz, J. Cioslowski, 
 and D. J. Fox, Gaussian, Inc., Wallingford CT, 2010.
 
 ******************************************
 Gaussian 09:  EM64L-G09RevB.01 12-Aug-2010
                 9-Jun-2005 
 ******************************************
 %mem=500MW
 %nproc=7
 Will use up to    7 processors via shared memory.
 ----------------------------------------------------------------------
 #p Temperature=358.15 SCF=(maxcycles=1024,conver=6) int=(grid=ultrafin
 e) CPHF=(grid=fine) freq rb3lyp/aug-cc-pvdz
 ----------------------------------------------------------------------
 1/10=4,30=1,38=1,112=358150/1,3;
 2/12=2,17=6,18=5,40=1/2;
 3/5=16,7=10,11=2,16=1,25=1,30=1,71=2,74=-5,75=-5,116=1/1,2,3;
 4//1;
 5/5=2,6=6,7=1024,38=5,96=4,98=1/2;
 8/6=4,10=90,11=11/1;
 11/6=1,8=1,9=11,15=111,16=1/1,2,10;
 10/6=1,60=4/2;
 6/7=2,8=2,9=2,10=2,18=1,28=1/1;
 7/8=1,10=1,25=1/1,2,3,16;
 1/10=4,30=1/3;
 99//99;
 Leave Link    1 at Thu Jun  9 15:37:17 2005, MaxMem=  524288000 cpu:       0.3
 (Enter /home/ubuntu/g09/l101.exe)
 ---------------------------------
 p-NO2-Ph-OTs-RB3LYP-aug-cc-pVDZ--
 ---------------------------------
 Symbolic Z-matrix:
 Charge =  0 Multiplicity = 1
 C                    -3.3594    1.21804  -0.36685 
 C                    -1.96597   1.21642  -0.36813 
 C                    -1.28248  -0.0039   -0.35769 
 C                    -1.96508  -1.22456  -0.33465 
 C                    -3.35851  -1.22711  -0.33327 
 C                    -4.0339   -0.0048   -0.35111 
 H                    -1.403     2.14714  -0.37775 
 H                    -1.40149  -2.15481  -0.31868 
 H                    -3.92408  -2.15506  -0.31877 
 C                     3.22544  -1.21866   0.10394 
 C                     4.51304  -1.21204  -0.42883 
 C                     5.1812   -0.00572  -0.70651 
 C                     4.52508   1.20413  -0.43257 
 C                     3.23458   1.22341   0.10104 
 C                     2.60422   0.00664   0.35933 
 H                     2.71364  -2.15163   0.33155 
 H                     5.01074  -2.16188  -0.62862 
 H                     5.03049   2.1488   -0.63471 
 H                     2.73109   2.16166   0.3255 
 S                     0.95593   0.01473   1.05193 
 O                     0.66758   1.30779   1.70868 
 O                     0.66816  -1.26198   1.74023 
 O                     0.10678  -0.0043   -0.44224 
 C                     6.57635  -0.02372  -1.2804 
 H                     7.27133  -0.5448   -0.60612 
 H                     6.59794  -0.55543  -2.24266 
 H                     6.95665   0.99172  -1.44315 
 H                    -3.92563   2.14563  -0.37782 
 N                    -5.50871  -0.0054   -0.35577 
 O                    -6.08081  -1.09307  -0.34323 
 O                    -6.0816    1.08179  -0.37282 
 
 NAtoms=     31 NQM=     31 NQMF=      0 NMic=      0 NMicF=      0 NTot=     31.
                    Isotopes and Nuclear Properties:
 (Nuclear quadrupole moments (NQMom) in fm**2, nuclear magnetic moments (NMagM)
  in nuclear magnetons)

  Atom         1           2           3           4           5           6           7           8           9          10
 IAtWgt=          12          12          12          12          12          12           1           1           1          12
 AtmWgt=  12.0000000  12.0000000  12.0000000  12.0000000  12.0000000  12.0000000   1.0078250   1.0078250   1.0078250  12.0000000
 NucSpn=           0           0           0           0           0           0           1           1           1           0
 AtZEff=   0.0000000   0.0000000   0.0000000   0.0000000   0.0000000   0.0000000   0.0000000   0.0000000   0.0000000   0.0000000
 NQMom=    0.0000000   0.0000000   0.0000000   0.0000000   0.0000000   0.0000000   0.0000000   0.0000000   0.0000000   0.0000000
 NMagM=    0.0000000   0.0000000   0.0000000   0.0000000   0.0000000   0.0000000   2.7928460   2.7928460   2.7928460   0.0000000

  Atom        11          12          13          14          15          16          17          18          19          20
 IAtWgt=          12          12          12          12          12           1           1           1           1          32
 AtmWgt=  12.0000000  12.0000000  12.0000000  12.0000000  12.0000000   1.0078250   1.0078250   1.0078250   1.0078250  31.9720718
 NucSpn=           0           0           0           0           0           1           1           1           1           0
 AtZEff=   0.0000000   0.0000000   0.0000000   0.0000000   0.0000000   0.0000000   0.0000000   0.0000000   0.0000000   0.0000000
 NQMom=    0.0000000   0.0000000   0.0000000   0.0000000   0.0000000   0.0000000   0.0000000   0.0000000   0.0000000   0.0000000
 NMagM=    0.0000000   0.0000000   0.0000000   0.0000000   0.0000000   2.7928460   2.7928460   2.7928460   2.7928460   0.0000000

  Atom        21          22          23          24          25          26          27          28          29          30
 IAtWgt=          16          16          16          12           1           1           1           1          14          16
 AtmWgt=  15.9949146  15.9949146  15.9949146  12.0000000   1.0078250   1.0078250   1.0078250   1.0078250  14.0030740  15.9949146
 NucSpn=           0           0           0           0           1           1           1           1           2           0
 AtZEff=   0.0000000   0.0000000   0.0000000   0.0000000   0.0000000   0.0000000   0.0000000   0.0000000   0.0000000   0.0000000
 NQMom=    0.0000000   0.0000000   0.0000000   0.0000000   0.0000000   0.0000000   0.0000000   0.0000000   2.0440000   0.0000000
 NMagM=    0.0000000   0.0000000   0.0000000   0.0000000   2.7928460   2.7928460   2.7928460   2.7928460   0.4037610   0.0000000

  Atom        31
 IAtWgt=          16
 AtmWgt=  15.9949146
 NucSpn=           0
 AtZEff=   0.0000000
 NQMom=    0.0000000
 NMagM=    0.0000000
 Leave Link  101 at Thu Jun  9 15:37:17 2005, MaxMem=  524288000 cpu:       0.2
 (Enter /home/ubuntu/g09/l103.exe)

 GradGradGradGradGradGradGradGradGradGradGradGradGradGradGradGradGradGrad
 Berny optimization.
 Initialization pass.
 Trust Radius=3.00D-01 FncErr=1.00D-07 GrdErr=1.00D-07
 Number of steps in this run=      2 maximum allowed number of steps=      2.
 GradGradGradGradGradGradGradGradGradGradGradGradGradGradGradGradGradGrad

 Leave Link  103 at Thu Jun  9 15:37:17 2005, MaxMem=  524288000 cpu:       0.1
 (Enter /home/ubuntu/g09/l202.exe)
                          Input orientation:                          
 ---------------------------------------------------------------------
 Center     Atomic      Atomic             Coordinates (Angstroms)
 Number     Number       Type             X           Y           Z
 ---------------------------------------------------------------------
      1          6           0       -3.359400    1.218040   -0.366850
      2          6           0       -1.965970    1.216420   -0.368130
      3          6           0       -1.282480   -0.003900   -0.357690
      4          6           0       -1.965080   -1.224560   -0.334650
      5          6           0       -3.358510   -1.227110   -0.333270
      6          6           0       -4.033900   -0.004800   -0.351110
      7          1           0       -1.403000    2.147140   -0.377750
      8          1           0       -1.401490   -2.154810   -0.318680
      9          1           0       -3.924080   -2.155060   -0.318770
     10          6           0        3.225440   -1.218660    0.103940
     11          6           0        4.513040   -1.212040   -0.428830
     12          6           0        5.181200   -0.005720   -0.706510
     13          6           0        4.525080    1.204130   -0.432570
     14          6           0        3.234580    1.223410    0.101040
     15          6           0        2.604220    0.006640    0.359330
     16          1           0        2.713640   -2.151630    0.331550
     17          1           0        5.010740   -2.161880   -0.628620
     18          1           0        5.030490    2.148800   -0.634710
     19          1           0        2.731090    2.161660    0.325500
     20         16           0        0.955930    0.014730    1.051930
     21          8           0        0.667580    1.307790    1.708680
     22          8           0        0.668160   -1.261980    1.740230
     23          8           0        0.106780   -0.004300   -0.442240
     24          6           0        6.576350   -0.023720   -1.280400
     25          1           0        7.271330   -0.544800   -0.606120
     26          1           0        6.597940   -0.555430   -2.242660
     27          1           0        6.956650    0.991720   -1.443150
     28          1           0       -3.925630    2.145630   -0.377820
     29          7           0       -5.508710   -0.005400   -0.355770
     30          8           0       -6.080810   -1.093070   -0.343230
     31          8           0       -6.081600    1.081790   -0.372820
 ---------------------------------------------------------------------
                    Distance matrix (angstroms):
                    1          2          3          4          5
     1  C    0.000000
     2  C    1.393432   0.000000
     3  C    2.409734   1.398731   0.000000
     4  C    2.812732   2.441210   1.398744   0.000000
     5  C    2.445381   2.812689   2.409718   1.393433   0.000000
     6  C    1.396616   2.401667   2.751428   2.401687   1.396607
     7  H    2.165836   1.087781   2.154507   3.418501   3.900200
     8  H    3.900237   3.418519   2.154553   1.087775   2.165818
     9  H    3.420377   3.899168   3.406913   2.168816   1.086817
    10  C    7.036993   5.753538   4.691491   5.209020   6.598456
    11  C    8.239202   6.919442   5.920533   6.478817   7.872144
    12  C    8.634512   7.258799   6.473086   7.259006   8.634683
    13  C    7.884766   6.491381   5.932343   6.930390   8.250562
    14  C    6.610561   5.221675   4.703249   5.763579   7.047163
    15  C    6.128588   4.783242   3.952299   4.782882   6.128294
    16  H    6.980276   5.807931   4.588766   4.815984   6.178004
    17  H    9.030594   7.755981   6.658446   7.044647   8.426469
    18  H    8.445609   7.063346   6.675661   7.772232   9.047815
    19  H    6.201922   4.841175   4.611414   5.827203   7.000069
    20  S    4.699251   3.463832   2.645346   3.462765   4.698440
    21  O    4.531274   3.355156   3.129401   4.185558   5.177323
    22  O    5.177985   4.186441   3.128743   3.352683   4.529314
    23  O    3.676167   2.406645   1.391831   2.406910   3.676326
    24  C   10.054634   8.679943   7.912837   8.677124  10.052196
    25  H   10.778556   9.406713   8.574494   9.265368  10.655210
    26  H   10.286519   8.943929   8.121473   8.798497  10.160109
    27  H   10.374513   8.989956   8.369752   9.259478  10.609315
    28  H    1.086812   2.168823   3.406923   3.899205   3.420378
    29  N    2.473148   3.747533   4.226231   3.747547   2.473144
    30  O    3.570415   4.718715   4.920414   4.117839   2.725616
    31  O    2.725614   4.117834   4.920417   4.718733   3.570406
                    6          7          8          9         10
     6  C    0.000000
     7  H    3.398998   0.000000
     8  H    3.398996   4.302356   0.000000
     9  H    2.153305   4.986807   2.522590   0.000000
    10  C    7.374181   5.743091   4.739564   7.222961   0.000000
    11  C    8.632129   6.803398   5.990210   8.490371   1.393485
    12  C    9.221951   6.935026   6.935475   9.363553   2.439887
    13  C    8.644321   6.002866   6.813199   9.093152   2.801217
    14  C    7.385373   4.752859   5.751668   7.926961   2.442089
    15  C    6.676039   4.602482   4.601877   6.910244   1.397318
    16  H    7.113663   5.994102   4.166186   6.669502   1.088200
    17  H    9.302447   7.730889   6.419720   8.940194   2.147930
    18  H    9.321029   6.438620   7.745405   9.940189   3.891477
    19  H    7.135576   4.193503   6.010416   7.958671   3.423454
    20  S    5.183368   3.486504   3.484667   5.513738   2.751474
    21  O    5.298070   3.056959   4.514514   6.097969   3.937104
    22  O    5.297506   4.516375   3.052820   5.111335   3.036281
    23  O    4.141683   2.629123   2.629608   4.570432   3.391021
    24  C   10.650885   8.318500   8.313386  10.757619   3.817444
    25  H   11.320992   9.085301   8.825676  11.314270   4.162631
    26  H   10.812825   8.648515   8.381563  10.815409   4.161750
    27  H   11.089535   8.506105   9.001310  11.382299   4.604476
    28  H    2.153320   2.522630   4.986839   4.301096   7.917597
    29  N    1.474817   4.635813   4.635795   2.670854   8.829989
    30  O    2.318239   5.690524   4.798326   2.404143   9.317834
    31  O    2.318237   4.798364   5.690513   3.890374   9.598977
                   11         12         13         14         15
    11  C    0.000000
    12  C    1.406681   0.000000
    13  C    2.416203   1.403308   0.000000
    14  C    2.801185   2.439719   1.396604   0.000000
    15  C    2.397910   2.788726   2.398081   1.394488   0.000000
    16  H    2.167683   3.430940   3.889257   3.422778   2.161220
    17  H    1.090787   2.164290   3.406512   3.891958   3.386719
    18  H    3.406668   2.160978   1.090276   2.150109   3.385816
    19  H    3.889243   3.430105   2.170238   1.088208   2.159016
    20  S    4.043593   4.576618   4.044409   2.749063   1.787909
    21  O    5.070114   5.284999   4.413162   3.030036   2.695239
    22  O    4.414795   5.285098   5.067405   3.930728   2.695294
    23  O    4.568801   5.081297   4.580586   3.403756   2.622945
    24  C    2.528740   1.508681   2.536561   3.825067   4.297377
    25  H    2.843379   2.160863   3.260485   4.463406   4.797718
    26  H    2.840409   2.160808   3.266378   4.468713   4.799591
    27  H    3.443346   2.165583   2.641765   4.036336   4.812792
    28  H    9.082274   9.363263   8.503171   7.235220   6.910688
    29  N   10.094394  10.695662  10.106721   8.841028   8.144394
    30  O   10.594864  11.320211  10.852189   9.609368   8.782522
    31  O   10.840258  11.320101  10.607554   9.329298   8.782680
                   16         17         18         19         20
    16  H    0.000000
    17  H    2.489719   0.000000
    18  H    4.979473   4.310730   0.000000
    19  H    4.313330   4.979975   2.491869   0.000000
    20  S    2.881251   4.899323   4.899086   2.878924   0.000000
    21  O    4.248580   6.030308   5.023321   2.626853   1.478672
    22  O    2.638152   5.027850   6.025254   4.240100   1.478701
    23  O    3.464895   5.360850   5.377342   3.488239   1.718709
    24  C    4.695414   2.729044   2.743436   4.705404   6.085258
    25  H    4.922770   2.779518   3.503950   5.367180   6.553356
    26  H    4.925667   2.775790   3.515005   5.378713   6.558329
    27  H    5.570758   3.794103   2.387991   4.727816   6.571801
    28  H    7.940375   9.923520   8.959804   6.693791   5.514939
    29  N    8.525594  10.741680  10.760721   8.547197   6.616162
    30  O    8.883593  11.146582  11.578241   9.417539   7.258747
    31  O    9.397201  11.559707  11.166272   8.906025   7.259157
                   21         22         23         24         25
    21  O    0.000000
    22  O    2.569964   0.000000
    23  O    2.581188   2.580713   0.000000
    24  C    6.754338   6.750126   6.523667   0.000000
    25  H    7.238778   7.044257   7.186778   1.099625   0.000000
    26  H    7.365721   7.178086   6.758729   1.099603   1.769698
    27  H    7.041756   7.399877   6.993897   1.096464   1.777790
    28  H    5.114004   6.099250   4.570195  10.761613  11.517919
    29  N    6.643266   6.642735   5.616156  12.120394  12.793868
    30  O    7.450854   7.065262   6.283430  12.736777  13.365977
    31  O    7.066481   7.451007   6.283348  12.738507  13.453660
                   26         27         28         29         30
    26  H    0.000000
    27  H    1.778078   0.000000
    28  H   11.023560  10.995020   0.000000
    29  N   12.265148  12.552364   2.670872   0.000000
    30  O   12.831508  13.248832   3.890395   1.229017   0.000000
    31  O   12.920818  13.082419   2.404160   1.229014   2.175061
                   31
    31  O    0.000000
 Stoichiometry    C13H11NO5S
 Framework group  C1[X(C13H11NO5S)]
 Deg. of freedom    87
 Full point group                 C1      NOp   1
 Largest Abelian subgroup         C1      NOp   1
 Largest concise Abelian subgroup C1      NOp   1
                         Standard orientation:                         
 ---------------------------------------------------------------------
 Center     Atomic      Atomic             Coordinates (Angstroms)
 Number     Number       Type             X           Y           Z
 ---------------------------------------------------------------------
      1          6           0       -3.359399    1.218041   -0.366850
      2          6           0       -1.965969    1.216421   -0.368130
      3          6           0       -1.282479   -0.003899   -0.357690
      4          6           0       -1.965079   -1.224559   -0.334650
      5          6           0       -3.358509   -1.227109   -0.333270
      6          6           0       -4.033899   -0.004798   -0.351110
      7          1           0       -1.402999    2.147141   -0.377750
      8          1           0       -1.401490   -2.154809   -0.318680
      9          1           0       -3.924080   -2.155058   -0.318770
     10          6           0        3.225441   -1.218659    0.103940
     11          6           0        4.513041   -1.212039   -0.428830
     12          6           0        5.181201   -0.005720   -0.706510
     13          6           0        4.525081    1.204131   -0.432570
     14          6           0        3.234581    1.223411    0.101040
     15          6           0        2.604221    0.006641    0.359330
     16          1           0        2.713640   -2.151629    0.331550
     17          1           0        5.010740   -2.161880   -0.628620
     18          1           0        5.030491    2.148800   -0.634710
     19          1           0        2.731091    2.161661    0.325500
     20         16           0        0.955931    0.014731    1.051930
     21          8           0        0.667581    1.307791    1.708680
     22          8           0        0.668161   -1.261979    1.740230
     23          8           0        0.106781   -0.004299   -0.442240
     24          6           0        6.576351   -0.023720   -1.280400
     25          1           0        7.271331   -0.544800   -0.606120
     26          1           0        6.597941   -0.555430   -2.242660
     27          1           0        6.956651    0.991720   -1.443150
     28          1           0       -3.925629    2.145632   -0.377820
     29          7           0       -5.508709   -0.005398   -0.355770
     30          8           0       -6.080809   -1.093068   -0.343230
     31          8           0       -6.081599    1.081792   -0.372820
 ---------------------------------------------------------------------
 Rotational constants (GHZ):      1.0958947      0.1167986      0.1145995
 Leave Link  202 at Thu Jun  9 15:37:17 2005, MaxMem=  524288000 cpu:       0.0
 (Enter /home/ubuntu/g09/l301.exe)
 Standard basis: Aug-CC-pVDZ (5D, 7F)
 Ernie: Thresh=  0.10000D-02 Tol=  0.10000D-05 Strict=F.
 Ernie:  48 primitive shells out of 605 were deleted.
 There are   563 symmetry adapted basis functions of A   symmetry.
 Integral buffers will be    131072 words long.
 Raffenetti 2 integral format.
 Two-electron integral symmetry is turned on.
   563 basis functions,  1019 primitive gaussians,   603 cartesian basis functions
    76 alpha electrons       76 beta electrons
       nuclear repulsion energy      1616.2329198614 Hartrees.
 IExCor=  402 DFT=T Ex+Corr=B3LYP ExCW=0 ScaHFX=  0.200000
 ScaDFX=  0.800000  0.720000  1.000000  0.810000 ScalE2=  1.000000  1.000000
 IRadAn=      5 IRanWt=     -1 IRanGd=            0 ICorTp=0
 NAtoms=   31 NActive=   31 NUniq=   31 SFac= 1.00D+00 NAtFMM=   50 NAOKFM=F Big=F
 Leave Link  301 at Thu Jun  9 15:37:17 2005, MaxMem=  524288000 cpu:       0.1
 (Enter /home/ubuntu/g09/l302.exe)
 NPDir=0 NMtPBC=     1 NCelOv=     1 NCel=       1 NClECP=     1 NCelD=      1
         NCelK=      1 NCelE2=     1 NClLst=     1 CellRange=     0.0.
 One-electron integrals computed using PRISM.
 NBasis=   563 RedAO= T  NBF=   563
 NBsUse=   563 1.00D-06 NBFU=   563
 Precomputing XC quadrature grid using
 IXCGrd= 2 IRadAn=           5 IRanWt=          -1 IRanGd=           0 AccXCQ= 0.00D+00.
 NRdTot=    2684 NPtTot=      726640 NUsed=      745844 NTot=      745876
 NSgBfM=   592   592   592   592   592 NAtAll=    31    31.
 Leave Link  302 at Thu Jun  9 15:37:19 2005, MaxMem=  524288000 cpu:       8.9
 (Enter /home/ubuntu/g09/l303.exe)
 DipDrv:  MaxL=1.
 Leave Link  303 at Thu Jun  9 15:37:19 2005, MaxMem=  524288000 cpu:       0.8
 (Enter /home/ubuntu/g09/l401.exe)
 Harris functional with IExCor=  402 diagonalized for initial guess.
 ExpMin= 2.97D-02 ExpMax= 1.11D+05 ExpMxC= 1.07D+03 IAcc=3 IRadAn=         5 AccDes= 0.00D+00
 HarFok:  IExCor=  402 AccDes= 0.00D+00 IRadAn=         5 IDoV= 1
 ScaDFX=  1.000000  1.000000  1.000000  1.000000
 FoFCou: FMM=F IPFlag=           0 FMFlag=      100000 FMFlg1=           0
         NFxFlg=           0 DoJE=T BraDBF=F KetDBF=T FulRan=T
         Omega=  0.000000  0.000000  1.000000  0.000000  0.000000 ICntrl=     500 IOpCl=  0
         NMat0=    1 NMatS0=    1 NMatT0=    0 NMatD0=    1 NMtDS0=    0 NMtDT0=    0
         I1Cent=           4 NGrid=           0.
 Petite list used in FoFCou.
 Harris En= -1331.05294460068    
 Initial guess orbital symmetries:
       Occupied  (A) (A) (A) (A) (A) (A) (A) (A) (A) (A) (A) (A)
                 (A) (A) (A) (A) (A) (A) (A) (A) (A) (A) (A) (A)
                 (A) (A) (A) (A) (A) (A) (A) (A) (A) (A) (A) (A)
                 (A) (A) (A) (A) (A) (A) (A) (A) (A) (A) (A) (A)
                 (A) (A) (A) (A) (A) (A) (A) (A) (A) (A) (A) (A)
                 (A) (A) (A) (A) (A) (A) (A) (A) (A) (A) (A) (A)
                 (A) (A) (A) (A)
       Virtual   (A) (A) (A) (A) (A) (A) (A) (A) (A) (A) (A) (A)
                 (A) (A) (A) (A) (A) (A) (A) (A) (A) (A) (A) (A)
                 (A) (A) (A) (A) (A) (A) (A) (A) (A) (A) (A) (A)
                 (A) (A) (A) (A) (A) (A) (A) (A) (A) (A) (A) (A)
                 (A) (A) (A) (A) (A) (A) (A) (A) (A) (A) (A) (A)
                 (A) (A) (A) (A) (A) (A) (A) (A) (A) (A) (A) (A)
                 (A) (A) (A) (A) (A) (A) (A) (A) (A) (A) (A) (A)
                 (A) (A) (A) (A) (A) (A) (A) (A) (A) (A) (A) (A)
                 (A) (A) (A) (A) (A) (A) (A) (A) (A) (A) (A) (A)
                 (A) (A) (A) (A) (A) (A) (A) (A) (A) (A) (A) (A)
                 (A) (A) (A) (A) (A) (A) (A) (A) (A) (A) (A) (A)
                 (A) (A) (A) (A) (A) (A) (A) (A) (A) (A) (A) (A)
                 (A) (A) (A) (A) (A) (A) (A) (A) (A) (A) (A) (A)
                 (A) (A) (A) (A) (A) (A) (A) (A) (A) (A) (A) (A)
                 (A) (A) (A) (A) (A) (A) (A) (A) (A) (A) (A) (A)
                 (A) (A) (A) (A) (A) (A) (A) (A) (A) (A) (A) (A)
                 (A) (A) (A) (A) (A) (A) (A) (A) (A) (A) (A) (A)
                 (A) (A) (A) (A) (A) (A) (A) (A) (A) (A) (A) (A)
                 (A) (A) (A) (A) (A) (A) (A) (A) (A) (A) (A) (A)
                 (A) (A) (A) (A) (A) (A) (A) (A) (A) (A) (A) (A)
                 (A) (A) (A) (A) (A) (A) (A) (A) (A) (A) (A) (A)
                 (A) (A) (A) (A) (A) (A) (A) (A) (A) (A) (A) (A)
                 (A) (A) (A) (A) (A) (A) (A) (A) (A) (A) (A) (A)
                 (A) (A) (A) (A) (A) (A) (A) (A) (A) (A) (A) (A)
                 (A) (A) (A) (A) (A) (A) (A) (A) (A) (A) (A) (A)
                 (A) (A) (A) (A) (A) (A) (A) (A) (A) (A) (A) (A)
                 (A) (A) (A) (A) (A) (A) (A) (A) (A) (A) (A) (A)
                 (A) (A) (A) (A) (A) (A) (A) (A) (A) (A) (A) (A)
                 (A) (A) (A) (A) (A) (A) (A) (A) (A) (A) (A) (A)
                 (A) (A) (A) (A) (A) (A) (A) (A) (A) (A) (A) (A)
                 (A) (A) (A) (A) (A) (A) (A) (A) (A) (A) (A) (A)
                 (A) (A) (A) (A) (A) (A) (A) (A) (A) (A) (A) (A)
                 (A) (A) (A) (A) (A) (A) (A) (A) (A) (A) (A) (A)
                 (A) (A) (A) (A) (A) (A) (A) (A) (A) (A) (A) (A)
                 (A) (A) (A) (A) (A) (A) (A) (A) (A) (A) (A) (A)
                 (A) (A) (A) (A) (A) (A) (A) (A) (A) (A) (A) (A)
                 (A) (A) (A) (A) (A) (A) (A) (A) (A) (A) (A) (A)
                 (A) (A) (A) (A) (A) (A) (A) (A) (A) (A) (A) (A)
                 (A) (A) (A) (A) (A) (A) (A) (A) (A) (A) (A) (A)
                 (A) (A) (A) (A) (A) (A) (A) (A) (A) (A) (A) (A)
                 (A) (A) (A) (A) (A) (A) (A)
 The electronic state of the initial guess is 1-A.
 Leave Link  401 at Thu Jun  9 15:37:29 2005, MaxMem=  524288000 cpu:      73.6
 (Enter /home/ubuntu/g09/l502.exe)
 Closed shell SCF:
 Requested convergence on RMS density matrix=1.00D-06 within1024 cycles.
 Requested convergence on MAX density matrix=1.00D-04.
 Requested convergence on             energy=1.00D-04.
 No special actions if energy rises.
 Using DIIS extrapolation, IDIIS=  1040.
 Integral symmetry usage will be decided dynamically.
       745552 words used for storage of precomputed grid.
 IEnd=     2899898 IEndB=     2899898 NGot=   524288000 MDV=   522802939
 LenX=   522802939 LenY=   522438727
 Fock matrices will be formed incrementally for  20 cycles.

 Cycle   1  Pass 1  IDiag  1:
 FoFCou: FMM=F IPFlag=           0 FMFlag=      100000 FMFlg1=           0
         NFxFlg=           0 DoJE=F BraDBF=F KetDBF=F FulRan=T
         Omega=  0.000000  0.000000  1.000000  0.000000  0.000000 ICntrl=       0 IOpCl=  0
         NMat0=    1 NMatS0=    1 NMatT0=    0 NMatD0=    1 NMtDS0=    0 NMtDT0=    0
         I1Cent=           0 NGrid=           0.
 Symmetry not used in FoFCou.
 E= -1330.38220167944    
 DIIS: error= 1.92D-02 at cycle   1 NSaved=   1.
 NSaved= 1 IEnMin= 1 EnMin= -1330.38220167944     IErMin= 1 ErrMin= 1.92D-02
 ErrMax= 1.92D-02 EMaxC= 1.00D-01 BMatC= 7.60D-01 BMatP= 7.60D-01
 IDIUse=3 WtCom= 8.08D-01 WtEn= 1.92D-01
 Coeff-Com:  0.100D+01
 Coeff-En:   0.100D+01
 Coeff:      0.100D+01
 Gap=     0.146 Goal=   None    Shift=    0.000
 GapD=    0.146 DampG=1.000 DampE=0.500 DampFc=0.5000 IDamp=-1.
 Damping current iteration by 5.00D-01
 RMSDP=4.64D-02 MaxDP=3.11D+00              OVMax= 3.41D-01

 Cycle   2  Pass 1  IDiag  1:
 RMSU=  9.21D-03    CP:  8.59D-01
 E= -1330.45441513227     Delta-E=       -0.072213452831 Rises=F Damp=T
 DIIS: error= 9.12D-03 at cycle   2 NSaved=   2.
 NSaved= 2 IEnMin= 2 EnMin= -1330.45441513227     IErMin= 2 ErrMin= 9.12D-03
 ErrMax= 9.12D-03 EMaxC= 1.00D-01 BMatC= 1.80D-01 BMatP= 7.60D-01
 IDIUse=3 WtCom= 9.09D-01 WtEn= 9.12D-02
 Coeff-Com:  0.299D+00 0.701D+00
 Coeff-En:   0.454D+00 0.546D+00
 Coeff:      0.314D+00 0.686D+00
 Gap=     0.164 Goal=   None    Shift=    0.000
 RMSDP=2.18D-02 MaxDP=1.69D+00 DE=-7.22D-02 OVMax= 2.41D-01

 Cycle   3  Pass 1  IDiag  1:
 RMSU=  5.28D-03    CP:  7.09D-01  1.01D+00
 E= -1330.97268260348     Delta-E=       -0.518267471209 Rises=F Damp=F
 DIIS: error= 6.13D-03 at cycle   3 NSaved=   3.
 NSaved= 3 IEnMin= 3 EnMin= -1330.97268260348     IErMin= 3 ErrMin= 6.13D-03
 ErrMax= 6.13D-03 EMaxC= 1.00D-01 BMatC= 7.52D-02 BMatP= 1.80D-01
 IDIUse=3 WtCom= 9.39D-01 WtEn= 6.13D-02
 Coeff-Com:  0.137D+00 0.413D+00 0.450D+00
 Coeff-En:   0.000D+00 0.000D+00 0.100D+01
 Coeff:      0.128D+00 0.388D+00 0.484D+00
 Gap=     0.188 Goal=   None    Shift=    0.000
 RMSDP=3.99D-03 MaxDP=2.95D-01 DE=-5.18D-01 OVMax= 7.86D-02

 Cycle   4  Pass 1  IDiag  1:
 RMSU=  1.75D-03    CP:  7.19D-01  1.01D+00  6.25D-01
 E= -1331.03040571428     Delta-E=       -0.057723110803 Rises=F Damp=F
 DIIS: error= 2.32D-03 at cycle   4 NSaved=   4.
 NSaved= 4 IEnMin= 4 EnMin= -1331.03040571428     IErMin= 4 ErrMin= 2.32D-03
 ErrMax= 2.32D-03 EMaxC= 1.00D-01 BMatC= 1.48D-02 BMatP= 7.52D-02
 IDIUse=3 WtCom= 9.77D-01 WtEn= 2.32D-02
 Coeff-Com:  0.289D-01 0.118D+00 0.312D+00 0.541D+00
 Coeff-En:   0.000D+00 0.000D+00 0.177D+00 0.823D+00
 Coeff:      0.283D-01 0.115D+00 0.309D+00 0.547D+00
 Gap=     0.179 Goal=   None    Shift=    0.000
 RMSDP=9.80D-04 MaxDP=4.85D-02 DE=-5.77D-02 OVMax= 2.66D-02

 Cycle   5  Pass 1  IDiag  1:
 RMSU=  4.63D-04    CP:  7.20D-01  9.73D-01  6.54D-01  7.85D-01
 E= -1331.04166948014     Delta-E=       -0.011263765866 Rises=F Damp=F
 DIIS: error= 1.21D-03 at cycle   5 NSaved=   5.
 NSaved= 5 IEnMin= 5 EnMin= -1331.04166948014     IErMin= 5 ErrMin= 1.21D-03
 ErrMax= 1.21D-03 EMaxC= 1.00D-01 BMatC= 1.57D-03 BMatP= 1.48D-02
 IDIUse=3 WtCom= 9.88D-01 WtEn= 1.21D-02
 Coeff-Com:  0.244D-02 0.242D-01 0.136D+00 0.336D+00 0.501D+00
 Coeff-En:   0.000D+00 0.000D+00 0.000D+00 0.543D-01 0.946D+00
 Coeff:      0.241D-02 0.239D-01 0.135D+00 0.332D+00 0.507D+00
 Gap=     0.179 Goal=   None    Shift=    0.000
 RMSDP=3.93D-04 MaxDP=2.74D-02 DE=-1.13D-02 OVMax= 1.33D-02

 Cycle   6  Pass 1  IDiag  1:
 RMSU=  1.73D-04    CP:  7.19D-01  9.90D-01  6.63D-01  7.95D-01  7.58D-01
 E= -1331.04292470078     Delta-E=       -0.001255220631 Rises=F Damp=F
 DIIS: error= 3.42D-04 at cycle   6 NSaved=   6.
 NSaved= 6 IEnMin= 6 EnMin= -1331.04292470078     IErMin= 6 ErrMin= 3.42D-04
 ErrMax= 3.42D-04 EMaxC= 1.00D-01 BMatC= 1.87D-04 BMatP= 1.57D-03
 IDIUse=3 WtCom= 9.97D-01 WtEn= 3.42D-03
 Coeff-Com: -0.138D-02 0.311D-02 0.461D-01 0.133D+00 0.308D+00 0.512D+00
 Coeff-En:   0.000D+00 0.000D+00 0.000D+00 0.000D+00 0.878D-01 0.912D+00
 Coeff:     -0.138D-02 0.310D-02 0.459D-01 0.132D+00 0.307D+00 0.513D+00
 Gap=     0.179 Goal=   None    Shift=    0.000
 RMSDP=1.40D-04 MaxDP=9.13D-03 DE=-1.26D-03 OVMax= 4.91D-03

 Cycle   7  Pass 1  IDiag  1:
 RMSU=  7.46D-05    CP:  7.18D-01  9.92D-01  6.66D-01  8.02D-01  7.46D-01
                    CP:  7.54D-01
 E= -1331.04308524888     Delta-E=       -0.000160548107 Rises=F Damp=F
 DIIS: error= 1.17D-04 at cycle   7 NSaved=   7.
 NSaved= 7 IEnMin= 7 EnMin= -1331.04308524888     IErMin= 7 ErrMin= 1.17D-04
 ErrMax= 1.17D-04 EMaxC= 1.00D-01 BMatC= 1.31D-05 BMatP= 1.87D-04
 IDIUse=3 WtCom= 9.99D-01 WtEn= 1.17D-03
 Coeff-Com: -0.102D-02-0.700D-03 0.128D-01 0.426D-01 0.126D+00 0.286D+00
 Coeff-Com:  0.534D+00
 Coeff-En:   0.000D+00 0.000D+00 0.000D+00 0.000D+00 0.000D+00 0.000D+00
 Coeff-En:   0.100D+01
 Coeff:     -0.102D-02-0.699D-03 0.128D-01 0.425D-01 0.126D+00 0.286D+00
 Coeff:      0.534D+00
 Gap=     0.179 Goal=   None    Shift=    0.000
 RMSDP=3.74D-05 MaxDP=1.89D-03 DE=-1.61D-04 OVMax= 1.39D-03

 Cycle   8  Pass 1  IDiag  1:
 RMSU=  2.15D-05    CP:  7.18D-01  9.92D-01  6.65D-01  8.04D-01  7.55D-01
                    CP:  7.50D-01  8.45D-01
 E= -1331.04309732452     Delta-E=       -0.000012075638 Rises=F Damp=F
 DIIS: error= 3.64D-05 at cycle   8 NSaved=   8.
 NSaved= 8 IEnMin= 8 EnMin= -1331.04309732452     IErMin= 8 ErrMin= 3.64D-05
 ErrMax= 3.64D-05 EMaxC= 1.00D-01 BMatC= 1.05D-06 BMatP= 1.31D-05
 IDIUse=1 WtCom= 1.00D+00 WtEn= 0.00D+00
 Coeff-Com: -0.451D-03-0.808D-03 0.254D-02 0.108D-01 0.423D-01 0.110D+00
 Coeff-Com:  0.286D+00 0.550D+00
 Coeff:     -0.451D-03-0.808D-03 0.254D-02 0.108D-01 0.423D-01 0.110D+00
 Coeff:      0.286D+00 0.550D+00
 Gap=     0.179 Goal=   None    Shift=    0.000
 RMSDP=1.42D-05 MaxDP=7.38D-04 DE=-1.21D-05 OVMax= 4.02D-04

 Cycle   9  Pass 1  IDiag  1:
 RMSU=  7.13D-06    CP:  7.18D-01  9.92D-01  6.65D-01  8.04D-01  7.57D-01
                    CP:  7.47D-01  8.17D-01  7.17D-01
 E= -1331.04309828773     Delta-E=       -0.000000963208 Rises=F Damp=F
 DIIS: error= 7.25D-06 at cycle   9 NSaved=   9.
 NSaved= 9 IEnMin= 9 EnMin= -1331.04309828773     IErMin= 9 ErrMin= 7.25D-06
 ErrMax= 7.25D-06 EMaxC= 1.00D-01 BMatC= 9.72D-08 BMatP= 1.05D-06
 IDIUse=1 WtCom= 1.00D+00 WtEn= 0.00D+00
 Coeff-Com: -0.778D-04-0.261D-03-0.197D-03 0.274D-03 0.566D-02 0.193D-01
 Coeff-Com:  0.753D-01 0.279D+00 0.621D+00
 Coeff:     -0.778D-04-0.261D-03-0.197D-03 0.274D-03 0.566D-02 0.193D-01
 Coeff:      0.753D-01 0.279D+00 0.621D+00
 Gap=     0.179 Goal=   None    Shift=    0.000
 RMSDP=6.41D-06 MaxDP=3.93D-04 DE=-9.63D-07 OVMax= 1.25D-04

 Cycle  10  Pass 1  IDiag  1:
 RMSU=  3.96D-06    CP:  7.18D-01  9.92D-01  6.65D-01  8.04D-01  7.59D-01
                    CP:  7.47D-01  8.18D-01  7.82D-01  9.25D-01
 E= -1331.04309837209     Delta-E=       -0.000000084365 Rises=F Damp=F
 DIIS: error= 2.33D-06 at cycle  10 NSaved=  10.
 NSaved=10 IEnMin=10 EnMin= -1331.04309837209     IErMin=10 ErrMin= 2.33D-06
 ErrMax= 2.33D-06 EMaxC= 1.00D-01 BMatC= 1.56D-08 BMatP= 9.72D-08
 IDIUse=1 WtCom= 1.00D+00 WtEn= 0.00D+00
 Coeff-Com: -0.196D-04-0.110D-03-0.253D-03-0.461D-03 0.930D-03 0.532D-02
 Coeff-Com:  0.282D-01 0.135D+00 0.379D+00 0.453D+00
 Coeff:     -0.196D-04-0.110D-03-0.253D-03-0.461D-03 0.930D-03 0.532D-02
 Coeff:      0.282D-01 0.135D+00 0.379D+00 0.453D+00
 Gap=     0.179 Goal=   None    Shift=    0.000
 RMSDP=4.17D-06 MaxDP=1.59D-04 DE=-8.44D-08 OVMax= 5.53D-05

 Cycle  11  Pass 1  IDiag  1:
 RMSU=  2.06D-06    CP:  7.18D-01  9.92D-01  6.65D-01  8.04D-01  7.59D-01
                    CP:  7.45D-01  8.21D-01  7.96D-01  1.05D+00  1.45D+00
 E= -1331.04309838132     Delta-E=       -0.000000009225 Rises=F Damp=F
 DIIS: error= 1.73D-06 at cycle  11 NSaved=  11.
 NSaved=11 IEnMin=11 EnMin= -1331.04309838132     IErMin=11 ErrMin= 1.73D-06
 ErrMax= 1.73D-06 EMaxC= 1.00D-01 BMatC= 3.55D-09 BMatP= 1.56D-08
 IDIUse=1 WtCom= 1.00D+00 WtEn= 0.00D+00
 Coeff-Com:  0.830D-07-0.321D-04-0.135D-03-0.363D-03-0.341D-03 0.505D-03
 Coeff-Com:  0.675D-02 0.456D-01 0.160D+00 0.325D+00 0.462D+00
 Coeff:      0.830D-07-0.321D-04-0.135D-03-0.363D-03-0.341D-03 0.505D-03
 Coeff:      0.675D-02 0.456D-01 0.160D+00 0.325D+00 0.462D+00
 Gap=     0.179 Goal=   None    Shift=    0.000
 RMSDP=5.37D-06 MaxDP=2.13D-04 DE=-9.22D-09 OVMax= 3.66D-05

 Cycle  12  Pass 1  IDiag  1:
 RMSU=  1.11D-06    CP:  7.18D-01  9.92D-01  6.65D-01  8.04D-01  7.60D-01
                    CP:  7.43D-01  8.22D-01  8.13D-01  1.19D+00  2.10D+00
                    CP:  2.08D+00
 E= -1331.04309838091     Delta-E=        0.000000000406 Rises=F Damp=F
 DIIS: error= 9.17D-07 at cycle  12 NSaved=  12.
 NSaved=12 IEnMin=11 EnMin= -1331.04309838132     IErMin=12 ErrMin= 9.17D-07
 ErrMax= 9.17D-07 EMaxC= 1.00D-01 BMatC= 9.36D-10 BMatP= 3.55D-09
 IDIUse=1 WtCom= 1.00D+00 WtEn= 0.00D+00
 Coeff-Com:  0.380D-05-0.459D-05-0.602D-04-0.204D-03-0.478D-03-0.605D-03
 Coeff-Com: -0.633D-05 0.104D-01 0.553D-01 0.166D+00 0.358D+00 0.412D+00
 Coeff:      0.380D-05-0.459D-05-0.602D-04-0.204D-03-0.478D-03-0.605D-03
 Coeff:     -0.633D-05 0.104D-01 0.553D-01 0.166D+00 0.358D+00 0.412D+00
 Gap=     0.179 Goal=   None    Shift=    0.000
 RMSDP=6.23D-06 MaxDP=2.54D-04 DE= 4.06D-10 OVMax= 1.43D-05

 Cycle  13  Pass 1  IDiag  1:
 RMSU=  9.33D-07    CP:  7.18D-01  9.92D-01  6.65D-01  8.04D-01  7.61D-01
                    CP:  7.41D-01  8.21D-01  8.28D-01  1.37D+00  2.84D+00
                    CP:  3.00D+00  2.10D+00
 E= -1331.04309837839     Delta-E=        0.000000002519 Rises=F Damp=F
 DIIS: error= 4.64D-07 at cycle  13 NSaved=  13.
 NSaved=13 IEnMin=11 EnMin= -1331.04309838132     IErMin=13 ErrMin= 4.64D-07
 ErrMax= 4.64D-07 EMaxC= 1.00D-01 BMatC= 7.69D-11 BMatP= 9.36D-10
 IDIUse=1 WtCom= 1.00D+00 WtEn= 0.00D+00
 Coeff-Com:  0.240D-05 0.140D-05-0.230D-04-0.894D-04-0.295D-03-0.503D-03
 Coeff-Com: -0.102D-02 0.149D-03 0.129D-01 0.588D-01 0.163D+00 0.262D+00
 Coeff-Com:  0.504D+00
 Coeff:      0.240D-05 0.140D-05-0.230D-04-0.894D-04-0.295D-03-0.503D-03
 Coeff:     -0.102D-02 0.149D-03 0.129D-01 0.588D-01 0.163D+00 0.262D+00
 Coeff:      0.504D+00
 Gap=     0.179 Goal=   None    Shift=    0.000
 RMSDP=8.64D-06 MaxDP=3.74D-04 DE= 2.52D-09 OVMax= 2.46D-06

 Cycle  14  Pass 1  IDiag  1:
 RMSU=  4.01D-06    CP:  7.18D-01  9.92D-01  6.65D-01  8.04D-01  7.63D-01
                    CP:  7.37D-01  8.19D-01  8.43D-01  1.62D+00  3.00D+00
                    CP:  3.00D+00  3.00D+00  3.00D+00
 E= -1331.04309837344     Delta-E=        0.000000004949 Rises=F Damp=F
 DIIS: error= 5.54D-07 at cycle  14 NSaved=  14.
 NSaved=14 IEnMin=11 EnMin= -1331.04309838132     IErMin=13 ErrMin= 4.64D-07
 ErrMax= 5.54D-07 EMaxC= 1.00D-01 BMatC= 2.46D-11 BMatP= 7.69D-11
 IDIUse=1 WtCom= 1.00D+00 WtEn= 0.00D+00
 Coeff-Com:  0.175D-05 0.112D-05-0.163D-04-0.638D-04-0.216D-03-0.368D-03
 Coeff-Com: -0.770D-03-0.102D-03 0.884D-02 0.417D-01 0.118D+00 0.191D+00
 Coeff-Com:  0.375D+00 0.266D+00
 Coeff:      0.175D-05 0.112D-05-0.163D-04-0.638D-04-0.216D-03-0.368D-03
 Coeff:     -0.770D-03-0.102D-03 0.884D-02 0.417D-01 0.118D+00 0.191D+00
 Coeff:      0.375D+00 0.266D+00
 Gap=     0.179 Goal=   None    Shift=    0.000
 RMSDP=4.60D-06 MaxDP=2.14D-04 DE= 4.95D-09 OVMax= 3.75D-07

 Cycle  15  Pass 1  IDiag  1:
 RMSU=  9.10D-07    CP:  7.18D-01  9.92D-01  6.65D-01  8.04D-01  7.63D-01
                    CP:  7.36D-01  8.16D-01  8.49D-01  1.77D+00  3.00D+00
                    CP:  3.00D+00  3.00D+00  3.00D+00  1.72D+00
 E= -1331.04309837065     Delta-E=        0.000000002794 Rises=F Damp=F
 DIIS: error= 5.80D-07 at cycle  15 NSaved=  15.
 NSaved=15 IEnMin=11 EnMin= -1331.04309838132     IErMin=13 ErrMin= 4.64D-07
 ErrMax= 5.80D-07 EMaxC= 1.00D-01 BMatC= 2.50D-11 BMatP= 2.46D-11
 IDIUse=1 WtCom= 1.00D+00 WtEn= 0.00D+00
 Coeff-Com:  0.225D-05 0.277D-05-0.161D-04-0.692D-04-0.277D-03-0.506D-03
 Coeff-Com: -0.130D-02-0.218D-02 0.473D-02 0.408D-01 0.136D+00 0.253D+00
 Coeff-Com:  0.656D+00 0.213D+01-0.221D+01
 Coeff:      0.225D-05 0.277D-05-0.161D-04-0.692D-04-0.277D-03-0.506D-03
 Coeff:     -0.130D-02-0.218D-02 0.473D-02 0.408D-01 0.136D+00 0.253D+00
 Coeff:      0.656D+00 0.213D+01-0.221D+01
 Gap=     0.179 Goal=   None    Shift=    0.000
 RMSDP=1.80D-05 MaxDP=8.12D-04 DE= 2.79D-09 OVMax= 1.25D-06

 Cycle  16  Pass 1  IDiag  1:
 RMSU=  3.12D-06    CP:  7.18D-01  9.92D-01  6.65D-01  8.04D-01  7.62D-01
                    CP:  7.43D-01  8.30D-01  8.33D-01  1.21D+00  2.07D+00
                    CP:  2.88D+00  2.94D+00  1.23D+00 -1.46D-01 -1.44D+00
 E= -1331.04309838135     Delta-E=       -0.000000010705 Rises=F Damp=F
 DIIS: error= 4.25D-07 at cycle  16 NSaved=  16.
 NSaved=16 IEnMin=16 EnMin= -1331.04309838135     IErMin=16 ErrMin= 4.25D-07
 ErrMax= 4.25D-07 EMaxC= 1.00D-01 BMatC= 1.93D-11 BMatP= 2.46D-11
 IDIUse=1 WtCom= 1.00D+00 WtEn= 0.00D+00
 Coeff-Com:  0.167D-05 0.339D-05-0.640D-05-0.357D-04-0.198D-03-0.387D-03
 Coeff-Com: -0.120D-02-0.352D-02-0.315D-02 0.148D-01 0.779D-01 0.183D+00
 Coeff-Com:  0.639D+00 0.375D+01-0.492D+01 0.127D+01
 Coeff:      0.167D-05 0.339D-05-0.640D-05-0.357D-04-0.198D-03-0.387D-03
 Coeff:     -0.120D-02-0.352D-02-0.315D-02 0.148D-01 0.779D-01 0.183D+00
 Coeff:      0.639D+00 0.375D+01-0.492D+01 0.127D+01
 Gap=     0.179 Goal=   None    Shift=    0.000
 RMSDP=3.31D-05 MaxDP=1.49D-03 DE=-1.07D-08 OVMax= 2.29D-06

 Cycle  17  Pass 1  IDiag  1:
 RMSU=  4.60D-06    CP:  7.18D-01  9.92D-01  6.65D-01  8.04D-01  7.60D-01
                    CP:  7.57D-01  8.53D-01  8.08D-01  2.22D-01 -2.15D+00
                    CP: -2.66D+00  1.37D-01  6.55D-01 -2.46D-01 -3.00D+00
                    CP:  2.53D+00
 E= -1331.04309839960     Delta-E=       -0.000000018246 Rises=F Damp=F
 DIIS: error= 2.13D-07 at cycle  17 NSaved=  17.
 NSaved=17 IEnMin=17 EnMin= -1331.04309839960     IErMin=17 ErrMin= 2.13D-07
 ErrMax= 2.13D-07 EMaxC= 1.00D-01 BMatC= 9.93D-12 BMatP= 1.93D-11
 IDIUse=1 WtCom= 1.00D+00 WtEn= 0.00D+00
 Coeff-Com:  0.940D-06 0.217D-05-0.191D-05-0.154D-04-0.108D-03-0.223D-03
 Coeff-Com: -0.741D-03-0.257D-02-0.396D-02 0.314D-02 0.349D-01 0.963D-01
 Coeff-Com:  0.373D+00 0.239D+01-0.332D+01 0.979D+00 0.447D+00
 Coeff:      0.940D-06 0.217D-05-0.191D-05-0.154D-04-0.108D-03-0.223D-03
 Coeff:     -0.741D-03-0.257D-02-0.396D-02 0.314D-02 0.349D-01 0.963D-01
 Coeff:      0.373D+00 0.239D+01-0.332D+01 0.979D+00 0.447D+00
 Gap=     0.179 Goal=   None    Shift=    0.000
 RMSDP=1.14D-05 MaxDP=5.07D-04 DE=-1.82D-08 OVMax= 7.20D-07

 Cycle  18  Pass 1  IDiag  1:
 RMSU=  1.68D-06    CP:  7.18D-01  9.92D-01  6.65D-01  8.04D-01  7.57D-01
                    CP:  7.60D-01  8.48D-01  7.82D-01  3.42D-02 -3.00D+00
                    CP: -3.00D+00 -2.85D+00 -3.00D+00 -4.73D-01 -3.00D+00
                    CP:  2.02D+00  5.23D-01
 E= -1331.04309840400     Delta-E=       -0.000000004399 Rises=F Damp=F
 DIIS: error= 2.17D-07 at cycle  18 NSaved=  18.
 NSaved=18 IEnMin=18 EnMin= -1331.04309840400     IErMin=17 ErrMin= 2.13D-07
 ErrMax= 2.17D-07 EMaxC= 1.00D-01 BMatC= 7.06D-12 BMatP= 9.93D-12
 IDIUse=1 WtCom= 1.00D+00 WtEn= 0.00D+00
 Coeff-Com:  0.775D-06 0.186D-05-0.122D-05-0.118D-04-0.887D-04-0.186D-03
 Coeff-Com: -0.634D-03-0.226D-02-0.368D-02 0.211D-02 0.287D-01 0.812D-01
 Coeff-Com:  0.319D+00 0.193D+01-0.249D+01 0.645D+00 0.134D+00 0.359D+00
 Coeff:      0.775D-06 0.186D-05-0.122D-05-0.118D-04-0.887D-04-0.186D-03
 Coeff:     -0.634D-03-0.226D-02-0.368D-02 0.211D-02 0.287D-01 0.812D-01
 Coeff:      0.319D+00 0.193D+01-0.249D+01 0.645D+00 0.134D+00 0.359D+00
 Gap=     0.179 Goal=   None    Shift=    0.000
 RMSDP=5.62D-06 MaxDP=3.46D-04 DE=-4.40D-09 OVMax= 3.95D-07

 Cycle  19  Pass 1  IDiag  1:
 RMSU=  1.02D-06    CP:  7.18D-01  9.92D-01  6.65D-01  8.05D-01  7.57D-01
                    CP:  7.57D-01  8.45D-01  7.91D-01  1.52D-01 -2.39D+00
                    CP: -3.00D+00 -2.97D+00 -3.00D+00 -1.78D-01 -3.00D+00
                    CP:  1.44D+00  6.27D-01  9.21D-01
 E= -1331.04309840176     Delta-E=        0.000000002244 Rises=F Damp=F
 DIIS: error= 1.96D-07 at cycle  19 NSaved=  19.
 NSaved=19 IEnMin=18 EnMin= -1331.04309840400     IErMin=19 ErrMin= 1.96D-07
 ErrMax= 1.96D-07 EMaxC= 1.00D-01 BMatC= 5.39D-12 BMatP= 7.06D-12
 IDIUse=1 WtCom= 1.00D+00 WtEn= 0.00D+00
 Coeff-Com:  0.601D-06 0.152D-05-0.766D-06-0.866D-05-0.689D-04-0.145D-03
 Coeff-Com: -0.499D-03-0.181D-02-0.303D-02 0.117D-02 0.218D-01 0.639D-01
 Coeff-Com:  0.259D+00 0.155D+01-0.183D+01 0.410D+00-0.123D+00-0.118D+00
 Coeff-Com:  0.764D+00
 Coeff:      0.601D-06 0.152D-05-0.766D-06-0.866D-05-0.689D-04-0.145D-03
 Coeff:     -0.499D-03-0.181D-02-0.303D-02 0.117D-02 0.218D-01 0.639D-01
 Coeff:      0.259D+00 0.155D+01-0.183D+01 0.410D+00-0.123D+00-0.118D+00
 Coeff:      0.764D+00
 Gap=     0.179 Goal=   None    Shift=    0.000
 RMSDP=7.84D-06 MaxDP=3.75D-04 DE= 2.24D-09 OVMax= 5.06D-07

 Cycle  20  Pass 1  IDiag  1:
 Restarting incremental Fock formation.
 E= -1331.04309839206     Delta-E=        0.000000009698 Rises=F Damp=F
 DIIS: error= 1.08D-06 at cycle  20 NSaved=  20.
 NSaved=20 IEnMin=18 EnMin= -1331.04309840400     IErMin=19 ErrMin= 1.96D-07
 ErrMax= 1.08D-06 EMaxC= 1.00D-01 BMatC= 3.75D-10 BMatP= 5.39D-12
 IDIUse=1 WtCom= 1.00D+00 WtEn= 0.00D+00
 Coeff-Com:  0.601D-06 0.153D-05-0.768D-06-0.867D-05-0.689D-04-0.145D-03
 Coeff-Com: -0.499D-03-0.181D-02-0.304D-02 0.118D-02 0.218D-01 0.639D-01
 Coeff-Com:  0.259D+00 0.155D+01-0.182D+01 0.410D+00-0.123D+00-0.118D+00
 Coeff-Com:  0.765D+00-0.190D-02
 Coeff:      0.601D-06 0.153D-05-0.768D-06-0.867D-05-0.689D-04-0.145D-03
 Coeff:     -0.499D-03-0.181D-02-0.304D-02 0.118D-02 0.218D-01 0.639D-01
 Coeff:      0.259D+00 0.155D+01-0.182D+01 0.410D+00-0.123D+00-0.118D+00
 Coeff:      0.765D+00-0.190D-02
 Gap=     0.179 Goal=   None    Shift=    0.000
 RMSDP=1.38D-07 MaxDP=8.87D-06 DE= 9.70D-09 OVMax= 5.71D-09

 Cycle  21  Pass 1  IDiag  1:
 RMSU=  9.75D-08    CP:  1.00D+00
 E= -1331.04309839247     Delta-E=       -0.000000000410 Rises=F Damp=F
 DIIS: error= 1.08D-06 at cycle  21 NSaved=  20.
 NSaved=20 IEnMin=17 EnMin= -1331.04309840400     IErMin=18 ErrMin= 1.96D-07
 ErrMax= 1.08D-06 EMaxC= 1.00D-01 BMatC= 3.77D-10 BMatP= 5.39D-12
 IDIUse=1 WtCom= 1.00D+00 WtEn= 0.00D+00
 Large coefficients: NSaved= 20 BigCof=    0.00 CofMax=   10.00 Det=-2.26D-15
 Inversion failed.  Reducing to 19 matrices.
 Large coefficients: NSaved= 19 BigCof=    0.00 CofMax=   10.00 Det=-2.26D-15
 Inversion failed.  Reducing to 18 matrices.
 Large coefficients: NSaved= 18 BigCof=    0.00 CofMax=   10.00 Det=-2.26D-15
 Inversion failed.  Reducing to 17 matrices.
 Large coefficients: NSaved= 17 BigCof=    0.00 CofMax=   10.00 Det=-2.26D-15
 Inversion failed.  Reducing to 16 matrices.
 Large coefficients: NSaved= 16 BigCof=    0.00 CofMax=   10.00 Det=-2.27D-15
 Inversion failed.  Reducing to 15 matrices.
 Coeff-Com: -0.414D-04-0.446D-03-0.119D-02-0.187D-02 0.373D-02 0.244D-01
 Coeff-Com:  0.142D+00 0.101D+01-0.988D+00 0.242D+00-0.219D+00-0.198D+00
 Coeff-Com:  0.994D+00-0.306D+01 0.305D+01
 Coeff:     -0.414D-04-0.446D-03-0.119D-02-0.187D-02 0.373D-02 0.244D-01
 Coeff:      0.142D+00 0.101D+01-0.988D+00 0.242D+00-0.219D+00-0.198D+00
 Coeff:      0.994D+00-0.306D+01 0.305D+01
 Gap=     0.179 Goal=   None    Shift=    0.000
 RMSDP=6.61D-06 MaxDP=2.92D-04 DE=-4.10D-10 OVMax= 4.18D-07

 Cycle  22  Pass 1  IDiag  1:
 RMSU=  4.57D-06    CP:  1.00D+00  3.00D+00
 E= -1331.04309839171     Delta-E=        0.000000000758 Rises=F Damp=F
 DIIS: error= 1.09D-06 at cycle  22 NSaved=  16.
 NSaved=16 IEnMin=12 EnMin= -1331.04309840400     IErMin=13 ErrMin= 1.96D-07
 ErrMax= 1.09D-06 EMaxC= 1.00D-01 BMatC= 3.85D-10 BMatP= 5.39D-12
 IDIUse=1 WtCom= 1.00D+00 WtEn= 0.00D+00
 Large coefficients: NSaved= 16 BigCof=    0.00 CofMax=   10.00 Det=-2.25D-15
 Inversion failed.  Reducing to 15 matrices.
 Coeff-Com: -0.361D-03-0.100D-02-0.131D-02 0.592D-02 0.293D-01 0.158D+00
 Coeff-Com:  0.112D+01-0.119D+01 0.316D+00-0.139D+00-0.189D+00 0.899D+00
 Coeff-Com: -0.377D+01 0.337D+01 0.388D+00
 Coeff:     -0.361D-03-0.100D-02-0.131D-02 0.592D-02 0.293D-01 0.158D+00
 Coeff:      0.112D+01-0.119D+01 0.316D+00-0.139D+00-0.189D+00 0.899D+00
 Coeff:     -0.377D+01 0.337D+01 0.388D+00
 Gap=     0.179 Goal=   None    Shift=    0.000
 RMSDP=2.47D-06 MaxDP=1.79D-04 DE= 7.58D-10 OVMax= 1.56D-07

 Cycle  23  Pass 1  IDiag  1:
 RMSU=  1.62D-06    CP:  1.00D+00  3.00D+00  1.13D+00
 E= -1331.04309839150     Delta-E=        0.000000000207 Rises=F Damp=F
 DIIS: error= 1.09D-06 at cycle  23 NSaved=  16.
 NSaved=16 IEnMin=11 EnMin= -1331.04309840400     IErMin=12 ErrMin= 1.96D-07
 ErrMax= 1.09D-06 EMaxC= 1.00D-01 BMatC= 3.88D-10 BMatP= 5.39D-12
 IDIUse=1 WtCom= 1.00D+00 WtEn= 0.00D+00
 Large coefficients: NSaved= 16 BigCof=    0.00 CofMax=   10.00 Det=-1.90D-15
 Inversion failed.  Reducing to 15 matrices.
 Coeff-Com:  0.171D-03 0.624D-03 0.860D-02 0.315D-01 0.158D+00 0.109D+01
 Coeff-Com: -0.113D+01 0.277D+00-0.197D+00-0.227D+00 0.988D+00-0.210D+01
 Coeff-Com:  0.204D+01 0.637D+00-0.584D+00
 Coeff:      0.171D-03 0.624D-03 0.860D-02 0.315D-01 0.158D+00 0.109D+01
 Coeff:     -0.113D+01 0.277D+00-0.197D+00-0.227D+00 0.988D+00-0.210D+01
 Coeff:      0.204D+01 0.637D+00-0.584D+00
 Gap=     0.179 Goal=   None    Shift=    0.000
 RMSDP=3.24D-06 MaxDP=1.90D-04 DE= 2.07D-10 OVMax= 1.78D-07

 Cycle  24  Pass 1  IDiag  1:
 RMSU=  2.09D-07    CP:  1.00D+00  3.00D+00  7.99D-01 -5.16D-02
 E= -1331.04309839133     Delta-E=        0.000000000178 Rises=F Damp=F
 DIIS: error= 1.09D-06 at cycle  24 NSaved=  16.
 NSaved=16 IEnMin=10 EnMin= -1331.04309840400     IErMin=11 ErrMin= 1.96D-07
 ErrMax= 1.09D-06 EMaxC= 1.00D-01 BMatC= 3.82D-10 BMatP= 5.39D-12
 IDIUse=1 WtCom= 1.00D+00 WtEn= 0.00D+00
 Large coefficients: NSaved= 16 BigCof=    0.00 CofMax=   10.00 Det=-1.61D-15
 Inversion failed.  Reducing to 15 matrices.
 Coeff-Com:  0.464D-03 0.840D-02 0.309D-01 0.154D+00 0.106D+01-0.109D+01
 Coeff-Com:  0.257D+00-0.223D+00-0.245D+00 0.103D+01 0.425D+00-0.305D+00
 Coeff-Com:  0.987D+00-0.188D+01 0.781D+00
 Coeff:      0.464D-03 0.840D-02 0.309D-01 0.154D+00 0.106D+01-0.109D+01
 Coeff:      0.257D+00-0.223D+00-0.245D+00 0.103D+01 0.425D+00-0.305D+00
 Coeff:      0.987D+00-0.188D+01 0.781D+00
 Gap=     0.179 Goal=   None    Shift=    0.000
 RMSDP=4.60D-06 MaxDP=2.37D-04 DE= 1.78D-10 OVMax= 2.65D-07

 Cycle  25  Pass 1  IDiag  1:
 RMSU=  2.53D-07    CP:  1.00D+00  3.00D+00  2.67D-01 -1.31D+00  3.00D+00
 E= -1331.04309839096     Delta-E=        0.000000000366 Rises=F Damp=F
 DIIS: error= 1.08D-06 at cycle  25 NSaved=  16.
 NSaved=16 IEnMin= 9 EnMin= -1331.04309840400     IErMin=10 ErrMin= 1.96D-07
 ErrMax= 1.08D-06 EMaxC= 1.00D-01 BMatC= 3.70D-10 BMatP= 5.39D-12
 IDIUse=1 WtCom= 1.00D+00 WtEn= 0.00D+00
 Large coefficients: NSaved= 16 BigCof=    0.00 CofMax=   10.00 Det=-1.10D-15
 Inversion failed.  Reducing to 15 matrices.
 Coeff-Com:  0.338D-03 0.470D-02 0.161D-01 0.722D-01 0.315D+00-0.558D-01
 Coeff-Com: -0.393D+00-0.252D+00 0.125D+01 0.358D+01-0.338D+01 0.101D+01
 Coeff-Com: -0.315D+01 0.789D+00 0.119D+01
 Coeff:      0.338D-03 0.470D-02 0.161D-01 0.722D-01 0.315D+00-0.558D-01
 Coeff:     -0.393D+00-0.252D+00 0.125D+01 0.358D+01-0.338D+01 0.101D+01
 Coeff:     -0.315D+01 0.789D+00 0.119D+01
 Gap=     0.179 Goal=   None    Shift=    0.000
 RMSDP=7.09D-06 MaxDP=5.23D-04 DE= 3.66D-10 OVMax= 3.59D-07

 Cycle  26  Pass 1  IDiag  1:
 RMSU=  1.98D-06    CP:  1.00D+00  3.00D+00  2.56D-01 -3.00D+00  3.00D+00
                    CP:  3.00D+00
 E= -1331.04309839163     Delta-E=       -0.000000000675 Rises=F Damp=F
 DIIS: error= 1.04D-06 at cycle  26 NSaved=  16.
 NSaved=16 IEnMin= 8 EnMin= -1331.04309840400     IErMin= 9 ErrMin= 1.96D-07
 ErrMax= 1.04D-06 EMaxC= 1.00D-01 BMatC= 3.49D-10 BMatP= 5.39D-12
 IDIUse=1 WtCom= 1.00D+00 WtEn= 0.00D+00
 Large coefficients: NSaved= 16 BigCof=    0.00 CofMax=   10.00 Det=-8.81D-16
 Inversion failed.  Reducing to 15 matrices.
 Coeff-Com:  0.288D-02 0.126D-01 0.651D-01 0.281D+00-0.506D-01-0.339D+00
 Coeff-Com: -0.188D+00 0.114D+01 0.933D+01-0.864D+01 0.965D+00-0.335D+01
 Coeff-Com:  0.519D+00 0.686D+00 0.565D+00
 Coeff:      0.288D-02 0.126D-01 0.651D-01 0.281D+00-0.506D-01-0.339D+00
 Coeff:     -0.188D+00 0.114D+01 0.933D+01-0.864D+01 0.965D+00-0.335D+01
 Coeff:      0.519D+00 0.686D+00 0.565D+00
 Gap=     0.179 Goal=   None    Shift=    0.000
 RMSDP=7.01D-06 MaxDP=2.58D-04 DE=-6.75D-10 OVMax= 4.34D-07

 Cycle  27  Pass 1  IDiag  1:
 RMSU=  9.59D-07    CP:  1.00D+00 -3.00D+00 -6.01D-01 -3.00D+00  3.00D+00
                    CP:  3.00D+00  2.21D+00
 E= -1331.04309839085     Delta-E=        0.000000000783 Rises=F Damp=F
 DIIS: error= 9.98D-07 at cycle  27 NSaved=  16.
 NSaved=16 IEnMin= 7 EnMin= -1331.04309840400     IErMin= 8 ErrMin= 1.96D-07
 ErrMax= 9.98D-07 EMaxC= 1.00D-01 BMatC= 3.24D-10 BMatP= 5.39D-12
 IDIUse=1 WtCom= 1.00D+00 WtEn= 0.00D+00
 Large coefficients: NSaved= 16 BigCof=    0.00 CofMax=   10.00 Det=-7.28D-16
 Inversion failed.  Reducing to 15 matrices.
 Large coefficients: NSaved= 15 BigCof=   25.49 CofMax=   10.00 Det=-8.07D-16
 Inversion failed.  Reducing to 14 matrices.
 Large coefficients: NSaved= 14 BigCof=   26.63 CofMax=   10.00 Det=-8.18D-16
 Inversion failed.  Reducing to 13 matrices.
 Large coefficients: NSaved= 13 BigCof=   26.76 CofMax=   10.00 Det=-8.23D-16
 Inversion failed.  Reducing to 12 matrices.
 Large coefficients: NSaved= 12 BigCof=   26.74 CofMax=   10.00 Det=-8.24D-16
 Inversion failed.  Reducing to 11 matrices.
 Large coefficients: NSaved= 11 BigCof=   39.93 CofMax=   10.00 Det=-1.93D-15
 Inversion failed.  Reducing to 10 matrices.
 Large coefficients: NSaved= 10 BigCof=   39.34 CofMax=   10.00 Det=-2.02D-15
 Inversion failed.  Reducing to  9 matrices.
 Large coefficients: NSaved=  9 BigCof=   39.20 CofMax=   10.00 Det=-2.04D-15
 Inversion failed.  Reducing to  8 matrices.
 Large coefficients: NSaved=  8 BigCof=   22.03 CofMax=   10.00 Det=-3.01D-15
 Inversion failed.  Reducing to  7 matrices.
 Large coefficients: NSaved=  7 BigCof=   19.03 CofMax=   10.00 Det=-3.23D-15
 Inversion failed.  Reducing to  6 matrices.
 Coeff-Com:  0.240D+00 0.246D+00 0.423D+00-0.622D+00-0.769D+00 0.148D+01
 Coeff:      0.240D+00 0.246D+00 0.423D+00-0.622D+00-0.769D+00 0.148D+01
 Gap=     0.179 Goal=   None    Shift=    0.000
 RMSDP=1.54D-05 MaxDP=5.91D-04 DE= 7.83D-10 OVMax= 9.16D-07

 Cycle  28  Pass 1  IDiag  1:
 RMSU=  4.80D-06    CP:  1.00D+00 -3.00D+00 -2.59D+00 -3.00D+00  3.00D+00
                    CP:  3.00D+00  2.15D+00  3.00D+00
 E= -1331.04309839563     Delta-E=       -0.000000004775 Rises=F Damp=F
 DIIS: error= 9.25D-07 at cycle  28 NSaved=   7.
 NSaved= 7 IEnMin= 2 EnMin= -1331.04309840400     IErMin= 3 ErrMin= 1.96D-07
 ErrMax= 9.25D-07 EMaxC= 1.00D-01 BMatC= 3.10D-10 BMatP= 5.39D-12
 IDIUse=1 WtCom= 1.00D+00 WtEn= 0.00D+00
 Coeff-Com:  0.566D+00 0.283D+00 0.535D-02-0.129D+01-0.534D+00 0.138D+01
 Coeff-Com:  0.595D+00
 Coeff:      0.566D+00 0.283D+00 0.535D-02-0.129D+01-0.534D+00 0.138D+01
 Coeff:      0.595D+00
 Gap=     0.179 Goal=   None    Shift=    0.000
 RMSDP=1.36D-05 MaxDP=6.42D-04 DE=-4.78D-09 OVMax= 8.54D-07

 Cycle  29  Pass 1  IDiag  1:
 RMSU=  7.46D-06    CP:  1.00D+00 -3.00D+00 -3.00D+00 -3.00D+00  3.00D+00
                    CP:  3.00D+00  3.00D+00  3.00D+00  8.85D-01
 E= -1331.04309840063     Delta-E=       -0.000000005003 Rises=F Damp=F
 DIIS: error= 8.56D-07 at cycle  29 NSaved=   8.
 NSaved= 8 IEnMin= 2 EnMin= -1331.04309840400     IErMin= 3 ErrMin= 1.96D-07
 ErrMax= 8.56D-07 EMaxC= 1.00D-01 BMatC= 2.74D-10 BMatP= 5.39D-12
 IDIUse=1 WtCom= 1.00D+00 WtEn= 0.00D+00
 Coeff-Com:  0.487D+00 0.214D+00 0.169D+00-0.118D+01-0.716D+00 0.158D+01
 Coeff-Com:  0.614D+00-0.170D+00
 Coeff:      0.487D+00 0.214D+00 0.169D+00-0.118D+01-0.716D+00 0.158D+01
 Coeff:      0.614D+00-0.170D+00
 Gap=     0.179 Goal=   None    Shift=    0.000
 RMSDP=3.97D-06 MaxDP=1.62D-04 DE=-5.00D-09 OVMax= 2.51D-07

 Cycle  30  Pass 1  IDiag  1:
 RMSU=  7.45D-07    CP:  1.00D+00 -3.00D+00 -3.00D+00 -3.00D+00  3.00D+00
                    CP:  3.00D+00  3.00D+00  3.00D+00  8.44D-01  6.39D-01
 E= -1331.04309839908     Delta-E=        0.000000001552 Rises=F Damp=F
 DIIS: error= 8.94D-07 at cycle  30 NSaved=   9.
 NSaved= 9 IEnMin= 2 EnMin= -1331.04309840400     IErMin= 3 ErrMin= 1.96D-07
 ErrMax= 8.94D-07 EMaxC= 1.00D-01 BMatC= 2.84D-10 BMatP= 5.39D-12
 IDIUse=1 WtCom= 1.00D+00 WtEn= 0.00D+00
 Coeff-Com:  0.613D-01 0.174D+00 0.717D+00-0.851D+00-0.808D-01 0.765D+00
 Coeff-Com:  0.339D+00-0.185D+01 0.172D+01
 Coeff:      0.613D-01 0.174D+00 0.717D+00-0.851D+00-0.808D-01 0.765D+00
 Coeff:      0.339D+00-0.185D+01 0.172D+01
 Gap=     0.179 Goal=   None    Shift=    0.000
 RMSDP=1.48D-05 MaxDP=5.82D-04 DE= 1.55D-09 OVMax= 8.80D-07

 Cycle  31  Pass 1  IDiag  1:
 RMSU=  2.24D-06    CP:  1.00D+00 -3.00D+00 -1.82D+00 -3.00D+00  3.00D+00
                    CP:  3.00D+00  1.23D+00  3.00D+00  7.48D-01  5.55D-02
                    CP:  1.48D+00
 E= -1331.04309839336     Delta-E=        0.000000005714 Rises=F Damp=F
 DIIS: error= 9.84D-07 at cycle  31 NSaved=  10.
 NSaved=10 IEnMin= 2 EnMin= -1331.04309840400     IErMin= 3 ErrMin= 1.96D-07
 ErrMax= 9.84D-07 EMaxC= 1.00D-01 BMatC= 3.41D-10 BMatP= 5.39D-12
 IDIUse=1 WtCom= 1.00D+00 WtEn= 0.00D+00
 Coeff-Com: -0.396D+00 0.500D+00 0.990D+00-0.914D+00 0.896D+00-0.427D+00
 Coeff-Com: -0.171D+00-0.248D+01 0.157D+01 0.143D+01
 Coeff:     -0.396D+00 0.500D+00 0.990D+00-0.914D+00 0.896D+00-0.427D+00
 Coeff:     -0.171D+00-0.248D+01 0.157D+01 0.143D+01
 Gap=     0.179 Goal=   None    Shift=    0.000
 RMSDP=2.25D-05 MaxDP=9.40D-04 DE= 5.71D-09 OVMax= 1.39D-06

 Cycle  32  Pass 1  IDiag  1:
 RMSU=  2.65D-06    CP:  1.00D+00  2.10D+00  7.42D-01  1.58D+00  3.00D+00
                    CP:  3.00D+00  6.70D-02  2.06D+00  4.16D-01 -8.43D-02
                    CP:  1.06D+00  2.17D+00
 E= -1331.04309838962     Delta-E=        0.000000003744 Rises=F Damp=F
 DIIS: error= 1.15D-06 at cycle  32 NSaved=  11.
 NSaved=11 IEnMin= 2 EnMin= -1331.04309840400     IErMin= 3 ErrMin= 1.96D-07
 ErrMax= 1.15D-06 EMaxC= 1.00D-01 BMatC= 4.52D-10 BMatP= 5.39D-12
 IDIUse=1 WtCom= 1.00D+00 WtEn= 0.00D+00
 Coeff-Com: -0.538D+00 0.576D+00 0.113D+01-0.860D+00 0.101D+01-0.581D+00
 Coeff-Com: -0.280D+00-0.289D+01 0.172D+01 0.147D+01 0.239D+00
 Coeff:     -0.538D+00 0.576D+00 0.113D+01-0.860D+00 0.101D+01-0.581D+00
 Coeff:     -0.280D+00-0.289D+01 0.172D+01 0.147D+01 0.239D+00
 Gap=     0.179 Goal=   None    Shift=    0.000
 RMSDP=1.29D-05 MaxDP=5.72D-04 DE= 3.74D-09 OVMax= 7.83D-07

 Cycle  33  Pass 1  IDiag  1:
 RMSU=  9.98D-07    CP:  1.00D+00  3.00D+00  2.24D+00  3.00D+00 -3.00D+00
                    CP:  3.00D+00 -1.28D+00  2.99D-01  5.34D-01 -1.62D-01
                    CP:  6.18D-01  2.51D+00  1.34D+00
 E= -1331.04309839140     Delta-E=       -0.000000001784 Rises=F Damp=F
 DIIS: error= 1.21D-06 at cycle  33 NSaved=  12.
 NSaved=12 IEnMin= 2 EnMin= -1331.04309840400     IErMin= 3 ErrMin= 1.96D-07
 ErrMax= 1.21D-06 EMaxC= 1.00D-01 BMatC= 5.19D-10 BMatP= 5.39D-12
 IDIUse=1 WtCom= 1.00D+00 WtEn= 0.00D+00
 Coeff-Com: -0.375D+00 0.537D+00 0.925D+00-0.974D+00 0.991D+00-0.509D+00
 Coeff-Com: -0.203D+00-0.222D+01 0.123D+01 0.147D+01 0.517D+00-0.387D+00
 Coeff:     -0.375D+00 0.537D+00 0.925D+00-0.974D+00 0.991D+00-0.509D+00
 Coeff:     -0.203D+00-0.222D+01 0.123D+01 0.147D+01 0.517D+00-0.387D+00
 Gap=     0.179 Goal=   None    Shift=    0.000
 RMSDP=1.44D-05 MaxDP=6.54D-04 DE=-1.78D-09 OVMax= 8.76D-07

 Cycle  34  Pass 1  IDiag  1:
 RMSU=  4.58D-07    CP:  1.00D+00  5.12D-01  5.63D-01  1.23D+00  2.87D+00
                    CP:  3.00D+00  6.35D-02  1.97D+00  4.08D-01 -5.99D-02
                    CP:  1.36D+00  2.21D+00  9.39D-01 -2.12D-01
 E= -1331.04309838967     Delta-E=        0.000000001735 Rises=F Damp=F
 DIIS: error= 1.14D-06 at cycle  34 NSaved=  13.
 NSaved=13 IEnMin= 2 EnMin= -1331.04309840400     IErMin= 3 ErrMin= 1.96D-07
 ErrMax= 1.14D-06 EMaxC= 1.00D-01 BMatC= 4.46D-10 BMatP= 5.39D-12
 IDIUse=1 WtCom= 1.00D+00 WtEn= 0.00D+00
 Coeff-Com: -0.284D+00 0.565D+00 0.768D+00-0.104D+01 0.103D+01-0.538D+00
 Coeff-Com: -0.183D+00-0.184D+01 0.958D+00 0.131D+01 0.331D+00-0.779D+00
 Coeff-Com:  0.708D+00
 Coeff:     -0.284D+00 0.565D+00 0.768D+00-0.104D+01 0.103D+01-0.538D+00
 Coeff:     -0.183D+00-0.184D+01 0.958D+00 0.131D+01 0.331D+00-0.779D+00
 Coeff:      0.708D+00
 Gap=     0.179 Goal=   None    Shift=    0.000
 RMSDP=7.40D-06 MaxDP=3.25D-04 DE= 1.74D-09 OVMax= 4.59D-07

 Cycle  35  Pass 1  IDiag  1:
 RMSU=  3.30D-07    CP:  1.00D+00 -3.00D+00 -3.00D-01 -5.28D-01  3.00D+00
                    CP:  3.00D+00  1.10D-01  2.58D+00  4.71D-01 -4.61D-03
                    CP:  1.70D+00  2.20D+00  5.44D-01 -6.20D-01  2.34D+00
 E= -1331.04309839023     Delta-E=       -0.000000000560 Rises=F Damp=F
 DIIS: error= 1.09D-06 at cycle  35 NSaved=  14.
 NSaved=14 IEnMin= 2 EnMin= -1331.04309840400     IErMin= 3 ErrMin= 1.96D-07
 ErrMax= 1.09D-06 EMaxC= 1.00D-01 BMatC= 4.14D-10 BMatP= 5.39D-12
 IDIUse=1 WtCom= 1.00D+00 WtEn= 0.00D+00
 Coeff-Com:  0.596D-01 0.523D+00 0.274D+00-0.138D+01 0.856D+00-0.177D+00
 Coeff-Com:  0.712D-02-0.353D+00-0.614D-01 0.660D+00-0.162D+00-0.147D+01
 Coeff-Com:  0.382D+00 0.184D+01
 Coeff:      0.596D-01 0.523D+00 0.274D+00-0.138D+01 0.856D+00-0.177D+00
 Coeff:      0.712D-02-0.353D+00-0.614D-01 0.660D+00-0.162D+00-0.147D+01
 Coeff:      0.382D+00 0.184D+01
 Gap=     0.179 Goal=   None    Shift=    0.000
 RMSDP=3.57D-05 MaxDP=1.64D-03 DE=-5.60D-10 OVMax= 2.10D-06

 Cycle  36  Pass 1  IDiag  1:
 RMSU=  1.19D-06    CP:  1.00D+00 -3.00D+00 -3.00D+00 -3.00D+00  3.00D+00
                    CP:  3.00D+00  3.00D+00  3.00D+00  7.69D-01  1.40D+00
                    CP:  5.96D-01  1.27D+00 -4.91D-02 -1.50D+00  3.00D+00
                    CP:  2.80D+00
 E= -1331.04309840261     Delta-E=       -0.000000012381 Rises=F Damp=F
 DIIS: error= 8.43D-07 at cycle  36 NSaved=  15.
 NSaved=15 IEnMin= 2 EnMin= -1331.04309840400     IErMin= 3 ErrMin= 1.96D-07
 ErrMax= 8.43D-07 EMaxC= 1.00D-01 BMatC= 2.78D-10 BMatP= 5.39D-12
 IDIUse=1 WtCom= 1.00D+00 WtEn= 0.00D+00
 Coeff-Com: -0.219D+00 0.460D+00 0.594D+00-0.991D+00 0.845D+00-0.378D+00
 Coeff-Com: -0.137D+00-0.149D+01 0.536D+00 0.930D+00 0.349D+00-0.187D+01
 Coeff-Com:  0.169D+00 0.167D+01 0.532D+00
 Coeff:     -0.219D+00 0.460D+00 0.594D+00-0.991D+00 0.845D+00-0.378D+00
 Coeff:     -0.137D+00-0.149D+01 0.536D+00 0.930D+00 0.349D+00-0.187D+01
 Coeff:      0.169D+00 0.167D+01 0.532D+00
 Gap=     0.179 Goal=   None    Shift=    0.000
 RMSDP=4.66D-06 MaxDP=2.74D-04 DE=-1.24D-08 OVMax= 2.71D-07

 Cycle  37  Pass 1  IDiag  1:
 RMSU=  5.58D-07    CP:  1.00D+00 -3.00D+00 -3.00D+00 -3.00D+00  3.00D+00
                    CP:  3.00D+00  3.00D+00  3.00D+00  7.40D-01  1.80D+00
                    CP: -3.27D-01  1.40D+00  6.99D-02 -2.00D+00  3.00D+00
                    CP:  3.00D+00  1.81D+00
 E= -1331.04309840323     Delta-E=       -0.000000000622 Rises=F Damp=F
 DIIS: error= 8.33D-07 at cycle  37 NSaved=  16.
 NSaved=16 IEnMin= 2 EnMin= -1331.04309840400     IErMin= 3 ErrMin= 1.96D-07
 ErrMax= 8.33D-07 EMaxC= 1.00D-01 BMatC= 2.67D-10 BMatP= 5.39D-12
 IDIUse=1 WtCom= 1.00D+00 WtEn= 0.00D+00
 Coeff-Com: -0.387D+00 0.328D+00 0.774D+00-0.527D+00 0.718D+00-0.510D+00
 Coeff-Com: -0.203D+00-0.248D+01 0.114D+01 0.113D+01 0.913D+00-0.289D+01
 Coeff-Com:  0.445D+00 0.147D+01 0.493D+00 0.587D+00
 Coeff:     -0.387D+00 0.328D+00 0.774D+00-0.527D+00 0.718D+00-0.510D+00
 Coeff:     -0.203D+00-0.248D+01 0.114D+01 0.113D+01 0.913D+00-0.289D+01
 Coeff:      0.445D+00 0.147D+01 0.493D+00 0.587D+00
 Gap=     0.179 Goal=   None    Shift=    0.000
 RMSDP=2.07D-05 MaxDP=1.02D-03 DE=-6.22D-10 OVMax= 1.27D-06

 Cycle  38  Pass 1  IDiag  1:
 RMSU=  5.29D-06    CP:  1.00D+00 -3.00D+00 -3.00D+00 -3.00D+00  3.00D+00
                    CP:  3.00D+00  3.00D+00  3.00D+00  8.16D-01  3.00D+00
                    CP: -3.00D+00  1.18D+00  4.97D-01 -2.59D+00  3.00D+00
                    CP:  3.00D+00  3.00D+00  3.00D+00
 E= -1331.04309840992     Delta-E=       -0.000000006688 Rises=F Damp=F
 DIIS: error= 8.08D-07 at cycle  38 NSaved=  17.
 NSaved=17 IEnMin=17 EnMin= -1331.04309840992     IErMin= 3 ErrMin= 1.96D-07
 ErrMax= 8.08D-07 EMaxC= 1.00D-01 BMatC= 2.14D-10 BMatP= 5.39D-12
 IDIUse=1 WtCom= 1.00D+00 WtEn= 0.00D+00
 Coeff-Com: -0.332D+00 0.305D+00 0.707D+00-0.523D+00 0.592D+00-0.385D+00
 Coeff-Com: -0.152D+00-0.237D+01 0.111D+01 0.106D+01 0.843D+00-0.304D+01
 Coeff-Com:  0.581D+00 0.158D+01 0.438D+00 0.495D+00 0.870D-01
 Coeff:     -0.332D+00 0.305D+00 0.707D+00-0.523D+00 0.592D+00-0.385D+00
 Coeff:     -0.152D+00-0.237D+01 0.111D+01 0.106D+01 0.843D+00-0.304D+01
 Coeff:      0.581D+00 0.158D+01 0.438D+00 0.495D+00 0.870D-01
 Gap=     0.179 Goal=   None    Shift=    0.000
 RMSDP=5.60D-06 MaxDP=2.37D-04 DE=-6.69D-09 OVMax= 3.53D-07

 Cycle  39  Pass 1  IDiag  1:
 RMSU=  5.78D-07    CP:  1.00D+00 -3.00D+00 -3.00D+00 -3.00D+00  3.00D+00
                    CP:  3.00D+00  3.00D+00  3.00D+00  8.71D-01  3.00D+00
                    CP: -3.00D+00  1.03D+00  6.06D-01 -2.52D+00  3.00D+00
                    CP:  3.00D+00  3.00D+00  3.00D+00  1.73D+00
 E= -1331.04309841233     Delta-E=       -0.000000002407 Rises=F Damp=F
 DIIS: error= 8.27D-07 at cycle  39 NSaved=  18.
 NSaved=18 IEnMin=18 EnMin= -1331.04309841233     IErMin= 3 ErrMin= 1.96D-07
 ErrMax= 8.27D-07 EMaxC= 1.00D-01 BMatC= 1.98D-10 BMatP= 5.39D-12
 IDIUse=1 WtCom= 1.00D+00 WtEn= 0.00D+00
 Coeff-Com: -0.355D+00 0.365D+00 0.746D+00-0.591D+00 0.669D+00-0.458D+00
 Coeff-Com: -0.180D+00-0.216D+01 0.967D+00 0.102D+01 0.709D+00-0.254D+01
 Coeff-Com:  0.554D+00 0.136D+01 0.454D+00 0.488D+00-0.531D+00 0.484D+00
 Coeff:     -0.355D+00 0.365D+00 0.746D+00-0.591D+00 0.669D+00-0.458D+00
 Coeff:     -0.180D+00-0.216D+01 0.967D+00 0.102D+01 0.709D+00-0.254D+01
 Coeff:      0.554D+00 0.136D+01 0.454D+00 0.488D+00-0.531D+00 0.484D+00
 Gap=     0.179 Goal=   None    Shift=    0.000
 RMSDP=1.26D-05 MaxDP=6.38D-04 DE=-2.41D-09 OVMax= 7.54D-07

 Cycle  40  Pass 1  IDiag  1:
 Restarting incremental Fock formation.
 E= -1331.04309839124     Delta-E=        0.000000021092 Rises=F Damp=F
 DIIS: error= 1.67D-06 at cycle  40 NSaved=  19.
 NSaved=19 IEnMin=18 EnMin= -1331.04309841233     IErMin= 3 ErrMin= 1.96D-07
 ErrMax= 1.67D-06 EMaxC= 1.00D-01 BMatC= 4.00D-10 BMatP= 5.39D-12
 IDIUse=1 WtCom= 1.00D+00 WtEn= 0.00D+00
 Coeff-Com: -0.364D+00 0.381D+00 0.880D+00-0.857D+00 0.777D+00-0.455D+00
 Coeff-Com: -0.138D+00-0.225D+01 0.137D+01 0.105D+01 0.552D+00-0.124D+01
 Coeff-Com: -0.921D-01 0.767D+00 0.285D+00 0.304D+00 0.301D+00-0.334D+00
 Coeff-Com:  0.578D-01
 Coeff:     -0.364D+00 0.381D+00 0.880D+00-0.857D+00 0.777D+00-0.455D+00
 Coeff:     -0.138D+00-0.225D+01 0.137D+01 0.105D+01 0.552D+00-0.124D+01
 Coeff:     -0.921D-01 0.767D+00 0.285D+00 0.304D+00 0.301D+00-0.334D+00
 Coeff:      0.578D-01
 Gap=     0.179 Goal=   None    Shift=    0.000
 RMSDP=2.56D-05 MaxDP=1.16D-03 DE= 2.11D-08 OVMax= 1.56D-06

 Cycle  41  Pass 1  IDiag  1:
 RMSU=  1.80D-05    CP:  1.00D+00
 E= -1331.04309838807     Delta-E=        0.000000003161 Rises=F Damp=F
 DIIS: error= 1.49D-06 at cycle  41 NSaved=  20.
 NSaved=20 IEnMin=18 EnMin= -1331.04309841233     IErMin= 3 ErrMin= 1.96D-07
 ErrMax= 1.49D-06 EMaxC= 1.00D-01 BMatC= 3.70D-10 BMatP= 5.39D-12
 IDIUse=1 WtCom= 1.00D+00 WtEn= 0.00D+00
 Coeff-Com: -0.353D+00 0.385D+00 0.870D+00-0.909D+00 0.727D+00-0.375D+00
 Coeff-Com: -0.118D+00-0.227D+01 0.140D+01 0.101D+01 0.496D+00-0.119D+01
 Coeff-Com: -0.104D+00 0.807D+00 0.290D+00 0.268D+00 0.241D+00-0.271D+00
 Coeff-Com:  0.167D-01 0.677D-01
 Coeff:     -0.353D+00 0.385D+00 0.870D+00-0.909D+00 0.727D+00-0.375D+00
 Coeff:     -0.118D+00-0.227D+01 0.140D+01 0.101D+01 0.496D+00-0.119D+01
 Coeff:     -0.104D+00 0.807D+00 0.290D+00 0.268D+00 0.241D+00-0.271D+00
 Coeff:      0.167D-01 0.677D-01
 Gap=     0.179 Goal=   None    Shift=    0.000
 RMSDP=7.49D-07 MaxDP=3.04D-05 DE= 3.16D-09 OVMax= 3.75D-08

 Cycle  42  Pass 1  IDiag  1:
 RMSU=  2.24D-07    CP:  1.00D+00  1.03D+00
 E= -1331.04309838826     Delta-E=       -0.000000000181 Rises=F Damp=F
 DIIS: error= 1.48D-06 at cycle  42 NSaved=  20.
 NSaved=20 IEnMin=17 EnMin= -1331.04309841233     IErMin= 3 ErrMin= 1.96D-07
 ErrMax= 1.48D-06 EMaxC= 1.00D-01 BMatC= 3.70D-10 BMatP= 5.39D-12
 IDIUse=1 WtCom= 1.00D+00 WtEn= 0.00D+00
 Large coefficients: NSaved= 20 BigCof=    0.00 CofMax=   10.00 Det=-4.41D-15
 Inversion failed.  Reducing to 19 matrices.
 Large coefficients: NSaved= 19 BigCof=    0.00 CofMax=   10.00 Det=-4.65D-15
 Inversion failed.  Reducing to 18 matrices.
 Large coefficients: NSaved= 18 BigCof=    0.00 CofMax=   10.00 Det=-4.73D-15
 Inversion failed.  Reducing to 17 matrices.
 Large coefficients: NSaved= 17 BigCof=    0.00 CofMax=   10.00 Det=-5.52D-15
 Inversion failed.  Reducing to 16 matrices.
 Large coefficients: NSaved= 16 BigCof=    0.00 CofMax=   10.00 Det=-6.27D-15
 Inversion failed.  Reducing to 15 matrices.
 Coeff-Com: -0.288D+00 0.410D+00 0.899D+00-0.112D+01 0.486D+00-0.748D-02
 Coeff-Com: -0.200D+01 0.144D+01 0.902D+00 0.141D+00 0.930D-01 0.120D+00
 Coeff-Com: -0.209D+00 0.483D+00-0.361D+00
 Coeff:     -0.288D+00 0.410D+00 0.899D+00-0.112D+01 0.486D+00-0.748D-02
 Coeff:     -0.200D+01 0.144D+01 0.902D+00 0.141D+00 0.930D-01 0.120D+00
 Coeff:     -0.209D+00 0.483D+00-0.361D+00
 Gap=     0.179 Goal=   None    Shift=    0.000
 RMSDP=2.24D-05 MaxDP=1.10D-03 DE=-1.81D-10 OVMax= 1.33D-06

 Cycle  43  Pass 1  IDiag  1:
 RMSU=  1.00D-06    CP:  1.00D+00  1.90D+00  1.89D+00
 E= -1331.04309838551     Delta-E=        0.000000002746 Rises=F Damp=F
 DIIS: error= 1.35D-06 at cycle  43 NSaved=  16.
 NSaved=16 IEnMin=13 EnMin= -1331.04309841233     IErMin= 3 ErrMin= 1.96D-07
 ErrMax= 1.35D-06 EMaxC= 1.00D-01 BMatC= 3.97D-10 BMatP= 5.39D-12
 IDIUse=1 WtCom= 1.00D+00 WtEn= 0.00D+00
 Large coefficients: NSaved= 16 BigCof=    0.00 CofMax=   10.00 Det=-6.49D-15
 Inversion failed.  Reducing to 15 matrices.
 Coeff-Com: -0.305D+00 0.411D+00 0.923D+00-0.109D+01 0.475D+00-0.136D-01
 Coeff-Com: -0.206D+01 0.149D+01 0.908D+00 0.129D+00 0.925D-01 0.192D+00
 Coeff-Com: -0.277D+00 0.147D+00-0.176D-01
 Coeff:     -0.305D+00 0.411D+00 0.923D+00-0.109D+01 0.475D+00-0.136D-01
 Coeff:     -0.206D+01 0.149D+01 0.908D+00 0.129D+00 0.925D-01 0.192D+00
 Coeff:     -0.277D+00 0.147D+00-0.176D-01
 Gap=     0.179 Goal=   None    Shift=    0.000
 RMSDP=1.18D-06 MaxDP=4.41D-05 DE= 2.75D-09 OVMax= 7.22D-08

 Cycle  44  Pass 1  IDiag  1:
 RMSU=  1.63D-07    CP:  1.00D+00  1.95D+00  2.02D+00  8.83D-01
 E= -1331.04309838454     Delta-E=        0.000000000971 Rises=F Damp=F
 DIIS: error= 1.35D-06 at cycle  44 NSaved=  16.
 NSaved=16 IEnMin=13 EnMin= -1331.04309841233     IErMin= 3 ErrMin= 1.96D-07
 ErrMax= 1.35D-06 EMaxC= 1.00D-01 BMatC= 4.01D-10 BMatP= 5.39D-12
 IDIUse=1 WtCom= 1.00D+00 WtEn= 0.00D+00
 Large coefficients: NSaved= 16 BigCof=    0.00 CofMax=   10.00 Det=-3.48D-15
 Inversion failed.  Reducing to 15 matrices.
 Coeff-Com: -0.436D+00 0.446D+00 0.105D+01-0.983D+00 0.423D+00-0.867D-01
 Coeff-Com: -0.262D+01 0.170D+01 0.109D+01 0.233D+00 0.180D+00-0.347D+00
 Coeff-Com:  0.197D+00 0.199D+01-0.184D+01
 Coeff:     -0.436D+00 0.446D+00 0.105D+01-0.983D+00 0.423D+00-0.867D-01
 Coeff:     -0.262D+01 0.170D+01 0.109D+01 0.233D+00 0.180D+00-0.347D+00
 Coeff:      0.197D+00 0.199D+01-0.184D+01
 Gap=     0.179 Goal=   None    Shift=    0.000
 RMSDP=5.31D-06 MaxDP=2.41D-04 DE= 9.71D-10 OVMax= 3.06D-07

 Cycle  45  Pass 1  IDiag  1:
 RMSU=  8.59D-07    CP:  1.00D+00  2.15D+00  2.14D+00  7.50D-01  1.57D+00
 E= -1331.04309838352     Delta-E=        0.000000001014 Rises=F Damp=F
 DIIS: error= 1.33D-06 at cycle  45 NSaved=  16.
 NSaved=16 IEnMin=13 EnMin= -1331.04309841233     IErMin= 3 ErrMin= 1.96D-07
 ErrMax= 1.33D-06 EMaxC= 1.00D-01 BMatC= 4.17D-10 BMatP= 5.39D-12
 IDIUse=1 WtCom= 1.00D+00 WtEn= 0.00D+00
 Large coefficients: NSaved= 16 BigCof=    0.00 CofMax=   10.00 Det=-2.42D-15
 Inversion failed.  Reducing to 15 matrices.
 Coeff-Com: -0.439D+00 0.424D+00 0.106D+01-0.950D+00 0.386D+00-0.695D-01
 Coeff-Com: -0.270D+01 0.189D+01 0.100D+01 0.196D+00 0.974D-01 0.360D+00
 Coeff-Com: -0.390D+00 0.816D+00-0.685D+00
 Coeff:     -0.439D+00 0.424D+00 0.106D+01-0.950D+00 0.386D+00-0.695D-01
 Coeff:     -0.270D+01 0.189D+01 0.100D+01 0.196D+00 0.974D-01 0.360D+00
 Coeff:     -0.390D+00 0.816D+00-0.685D+00
 Gap=     0.179 Goal=   None    Shift=    0.000
 RMSDP=2.11D-06 MaxDP=1.03D-04 DE= 1.01D-09 OVMax= 1.23D-07

 Cycle  46  Pass 1  IDiag  1:
 RMSU=  3.72D-07    CP:  1.00D+00  2.08D+00  1.37D+00  6.18D-01  1.76D+00
                    CP:  4.06D-01
 E= -1331.04309838294     Delta-E=        0.000000000584 Rises=F Damp=F
 DIIS: error= 1.34D-06 at cycle  46 NSaved=  16.
 NSaved=16 IEnMin=13 EnMin= -1331.04309841233     IErMin= 3 ErrMin= 1.96D-07
 ErrMax= 1.34D-06 EMaxC= 1.00D-01 BMatC= 4.10D-10 BMatP= 5.39D-12
 IDIUse=1 WtCom= 1.00D+00 WtEn= 0.00D+00
 Coeff-Com: -0.476D+00 0.421D+00 0.111D+01-0.916D+00 0.375D+00-0.854D-01
 Coeff-Com: -0.282D+01 0.196D+01 0.102D+01 0.220D+00 0.101D+00 0.242D+00
 Coeff-Com: -0.284D+00 0.845D+00-0.483D+00-0.228D+00
 Coeff:     -0.476D+00 0.421D+00 0.111D+01-0.916D+00 0.375D+00-0.854D-01
 Coeff:     -0.282D+01 0.196D+01 0.102D+01 0.220D+00 0.101D+00 0.242D+00
 Coeff:     -0.284D+00 0.845D+00-0.483D+00-0.228D+00
 Gap=     0.179 Goal=   None    Shift=    0.000
 RMSDP=1.35D-06 MaxDP=6.07D-05 DE= 5.84D-10 OVMax= 7.80D-08

 Cycle  47  Pass 1  IDiag  1:
 RMSU=  8.75D-08    CP:  1.00D+00  2.13D+00  1.45D+00  5.99D-01  2.52D+00
                    CP:  5.47D-01  9.05D-01
 E= -1331.04309838230     Delta-E=        0.000000000643 Rises=F Damp=F
 DIIS: error= 1.33D-06 at cycle  47 NSaved=  17.
 NSaved=17 IEnMin=13 EnMin= -1331.04309841233     IErMin= 3 ErrMin= 1.96D-07
 ErrMax= 1.33D-06 EMaxC= 1.00D-01 BMatC= 4.14D-10 BMatP= 5.39D-12
 IDIUse=1 WtCom= 1.00D+00 WtEn= 0.00D+00
 Large coefficients: NSaved= 17 BigCof=    0.00 CofMax=   10.00 Det=-1.76D-15
 Inversion failed.  Reducing to 16 matrices.
 Large coefficients: NSaved= 16 BigCof=    0.00 CofMax=   10.00 Det=-1.76D-15
 Inversion failed.  Reducing to 15 matrices.
 Coeff-Com: -0.456D+00 0.420D+00 0.110D+01-0.991D+00 0.451D+00-0.911D-01
 Coeff-Com: -0.260D+01 0.171D+01 0.110D+01 0.181D+00 0.880D-01 0.648D+00
 Coeff-Com: -0.668D+00 0.345D+01-0.334D+01
 Coeff:     -0.456D+00 0.420D+00 0.110D+01-0.991D+00 0.451D+00-0.911D-01
 Coeff:     -0.260D+01 0.171D+01 0.110D+01 0.181D+00 0.880D-01 0.648D+00
 Coeff:     -0.668D+00 0.345D+01-0.334D+01
 Gap=     0.179 Goal=   None    Shift=    0.000
 RMSDP=1.58D-06 MaxDP=9.68D-05 DE= 6.43D-10 OVMax= 9.71D-08

 Cycle  48  Pass 1  IDiag  1:
 RMSU=  4.46D-07    CP:  1.00D+00  2.17D+00  5.41D-01  2.20D-01 -1.23D+00
                    CP:  6.92D-01  1.05D+00 -1.83D-01
 E= -1331.04309838451     Delta-E=       -0.000000002212 Rises=F Damp=F
 DIIS: error= 1.31D-06 at cycle  48 NSaved=  16.
 NSaved=16 IEnMin=13 EnMin= -1331.04309841233     IErMin= 3 ErrMin= 1.96D-07
 ErrMax= 1.31D-06 EMaxC= 1.00D-01 BMatC= 4.15D-10 BMatP= 5.39D-12
 IDIUse=1 WtCom= 1.00D+00 WtEn= 0.00D+00
 Large coefficients: NSaved= 16 BigCof=    0.00 CofMax=   10.00 Det=-4.27D-15
 Inversion failed.  Reducing to 15 matrices.
 Coeff-Com: -0.458D+00 0.463D+00 0.105D+01-0.104D+01 0.501D+00-0.107D+00
 Coeff-Com: -0.256D+01 0.153D+01 0.116D+01 0.345D+00 0.180D+00-0.601D+00
 Coeff-Com:  0.432D+00 0.110D+01-0.100D+01
 Coeff:     -0.458D+00 0.463D+00 0.105D+01-0.104D+01 0.501D+00-0.107D+00
 Coeff:     -0.256D+01 0.153D+01 0.116D+01 0.345D+00 0.180D+00-0.601D+00
 Coeff:      0.432D+00 0.110D+01-0.100D+01
 Gap=     0.179 Goal=   None    Shift=    0.000
 RMSDP=2.82D-06 MaxDP=1.90D-04 DE=-2.21D-09 OVMax= 1.29D-07

 Cycle  49  Pass 1  IDiag  1:
 RMSU=  7.53D-07    CP:  1.00D+00  2.13D+00  2.99D+00  1.29D+00  3.00D+00
                    CP:  3.56D-01  2.81D-01  3.00D+00 -2.87D-02
 E= -1331.04309838267     Delta-E=        0.000000001843 Rises=F Damp=F
 DIIS: error= 1.34D-06 at cycle  49 NSaved=  16.
 NSaved=16 IEnMin=13 EnMin= -1331.04309841233     IErMin= 3 ErrMin= 1.96D-07
 ErrMax= 1.34D-06 EMaxC= 1.00D-01 BMatC= 4.18D-10 BMatP= 5.39D-12
 IDIUse=1 WtCom= 1.00D+00 WtEn= 0.00D+00
 Coeff-Com: -0.461D+00 0.458D+00 0.106D+01-0.102D+01 0.473D+00-0.100D+00
 Coeff-Com: -0.261D+01 0.165D+01 0.114D+01 0.304D+00 0.113D+00-0.536D+00
 Coeff-Com:  0.422D+00 0.995D+00-0.115D+01 0.261D+00
 Coeff:     -0.461D+00 0.458D+00 0.106D+01-0.102D+01 0.473D+00-0.100D+00
 Coeff:     -0.261D+01 0.165D+01 0.114D+01 0.304D+00 0.113D+00-0.536D+00
 Coeff:      0.422D+00 0.995D+00-0.115D+01 0.261D+00
 Gap=     0.179 Goal=   None    Shift=    0.000
 RMSDP=8.90D-07 MaxDP=6.17D-05 DE= 1.84D-09 OVMax= 4.43D-08

 Cycle  50  Pass 1  IDiag  1:
 RMSU=  4.32D-07    CP:  1.00D+00  2.11D+00  3.00D+00  1.45D+00  3.00D+00
                    CP:  1.75D-01  2.95D-01  3.00D+00 -5.40D-01  1.08D+00
 E= -1331.04309838193     Delta-E=        0.000000000738 Rises=F Damp=F
 DIIS: error= 1.35D-06 at cycle  50 NSaved=  17.
 NSaved=17 IEnMin=13 EnMin= -1331.04309841233     IErMin= 3 ErrMin= 1.96D-07
 ErrMax= 1.35D-06 EMaxC= 1.00D-01 BMatC= 4.16D-10 BMatP= 5.39D-12
 IDIUse=1 WtCom= 1.00D+00 WtEn= 0.00D+00
 Coeff-Com: -0.467D+00 0.447D+00 0.107D+01-0.101D+01 0.464D+00-0.974D-01
 Coeff-Com: -0.266D+01 0.170D+01 0.115D+01 0.299D+00 0.908D-01-0.493D+00
 Coeff-Com:  0.401D+00 0.844D+00-0.104D+01-0.146D+00 0.446D+00
 Coeff:     -0.467D+00 0.447D+00 0.107D+01-0.101D+01 0.464D+00-0.974D-01
 Coeff:     -0.266D+01 0.170D+01 0.115D+01 0.299D+00 0.908D-01-0.493D+00
 Coeff:      0.401D+00 0.844D+00-0.104D+01-0.146D+00 0.446D+00
 Gap=     0.179 Goal=   None    Shift=    0.000
 RMSDP=2.20D-07 MaxDP=2.01D-05 DE= 7.38D-10 OVMax= 1.63D-08

 SCF Done:  E(RB3LYP) =  -1331.04309838     A.U. after   50 cycles
             Convg  =    0.2204D-06             -V/T =  2.0052
 KE= 1.324132834615D+03 PE=-6.353834690599D+03 EE= 2.082425837741D+03
 Leave Link  502 at Thu Jun  9 16:36:19 2005, MaxMem=  524288000 cpu:   24660.6
 (Enter /home/ubuntu/g09/l801.exe)
 Range of M.O.s used for correlation:     1   563
 NBasis=   563 NAE=    76 NBE=    76 NFC=     0 NFV=     0
 NROrb=    563 NOA=    76 NOB=    76 NVA=   487 NVB=   487

 **** Warning!!: The largest alpha MO coefficient is  0.13423284D+03

 Leave Link  801 at Thu Jun  9 16:36:19 2005, MaxMem=  524288000 cpu:       0.1
 (Enter /home/ubuntu/g09/l1101.exe)
 Using compressed storage, NAtomX=    31.
 Will process  32 centers per pass.
 Leave Link 1101 at Thu Jun  9 16:36:20 2005, MaxMem=  524288000 cpu:       9.4
 (Enter /home/ubuntu/g09/l1102.exe)
 Symmetrizing basis deriv contribution to polar:
 IMax=3 JMax=2 DiffMx= 0.00D+00
 Leave Link 1102 at Thu Jun  9 16:36:20 2005, MaxMem=  524288000 cpu:       0.8
 (Enter /home/ubuntu/g09/l1110.exe)
 Forming Gx(P) for the SCF density, NAtomX=    31.
 Integral derivatives from FoFDir/FoFCou, PRISM(SPDF).
 Do as many integral derivatives as possible in FoFDir.
 G2DrvN: MDV=     524287648.
 G2DrvN: will do    32 centers at a time, making    1 passes doing MaxLOS=2.
 Calling FoFCou, ICntrl=  3107 FMM=F I1Cent=   0 AccDes= 0.00D+00.
[...]
 5342,0.01054798,-0.00769045,0.00883689,0.00111337,0.00009319,-0.000863
 02,0.00005460,-0.00019955,-0.00086010,0.00032312,-0.00032051,-0.000150
 52,-0.00001674,0.00001765,0.00005070,-0.00028960,-0.00005744,0.0000136
 9,0.00016446,-0.00009013,0.00023998,0.00012087,-0.00000981,0.00001950,
 -0.00020419,-0.00003405,0.00006017,0.00005355,-0.00001460,-0.00000877,
 0.00001954,0.00002285,-0.00001005,0.00007785,0.00000045,0.00002076,-0.
 10274749,0.07957001,-0.14376496,0.10990048,-0.08639249,0.15639296,0.00
 000992,0.00000700,0.00000177,-0.00003075,0.00000139,-0.00000721,0.0001
 2699,-0.00000199,-0.00002780,-0.00003403,0.00000239,-0.00000524,0.0000
 0878,-0.00000956,0.00000027,-0.00003334,-0.00000002,0.00000175,0.00000
 533,-0.00000529,0.00000687,0.00000411,0.00000484,0.00000643,-0.0000021
 8,0.00000077,0.00000158,0.00001692,0.00011599,-0.00087815,0.00039111,0
 .00067837,-0.00076247,-0.00284387,0.01617506,0.02833349,-0.00278434,-0
 .00123089,0.00088048,-0.00092523,0.00059638,-0.00113618,-0.00054372,0.
 00022933,0.00037591,0.00004537,-0.00001780,0.00007426,0.00035305,-0.00
 044112,0.00029681,0.00015649,0.00009478,0.00048596,-0.00020297,-0.0000
 0086,0.00014420,0.00088640,0.00004918,-0.00004782,-0.00017417,0.000046
 93,0.00003411,-0.00017741,-0.00010778,0.00003681,-0.00028179,-0.000010
 82,-0.00005011,-0.04215016,-0.00113063,0.00284991,-0.00003803,-0.01046
 320,-0.01712831,0.04891837,0.00000351,0.00000152,0.00000209,-0.0000110
 2,-0.00000177,0.00000072,0.00001484,-0.00000618,-0.00002932,-0.0000145
 9,0.00000535,0.00000021,0.00000246,-0.00000509,0.00000212,-0.00000818,
 0.00000049,-0.00000075,0.00000010,-0.00000118,-0.00000276,0.00000036,0
 .00000098,-0.00000197,-0.00000135,0.00000084,-0.00000017,0.00151225,-0
 .00042917,-0.00033650,-0.00208566,-0.00023945,0.00089553,0.00217923,-0
 .00061113,0.00045582,0.00099790,0.00011218,-0.00030374,0.00006311,-0.0
 0035955,0.00038089,-0.00063945,0.00080747,0.00033129,0.00002388,-0.000
 00728,0.00000050,-0.00015349,-0.00010894,-0.00026553,-0.00015650,0.000
 27872,-0.00039951,0.00002899,-0.00000484,-0.00005857,0.00035021,0.0000
 6605,-0.00031255,-0.00002224,0.00002763,0.00001940,-0.00000036,-0.0000
 4011,0.00001679,-0.00013477,-0.00000533,0.00002755,-0.00168095,-0.1064
 0487,-0.11228402,-0.00029740,0.00762245,0.01424664,-0.00056314,0.11193
 316,-0.00000911,-0.00000633,-0.00000063,0.00002608,-0.00000402,0.00000
 278,-0.00011440,-0.00001018,0.00001555,0.00002716,0.00000128,0.0000023
 7,-0.00000959,0.00000861,0.00000007,0.00003029,-0.00000081,-0.00000024
 ,-0.00000514,0.00000450,-0.00000309,-0.00000297,-0.00000463,-0.0000032
 4,0.00000100,-0.00000113,-0.00000120,0.00052225,0.00003123,0.00037793,
 -0.00004627,-0.00089348,0.00152832,0.00087827,-0.00498364,-0.00886637,
 0.00075228,0.00108232,-0.00060561,-0.00000581,-0.00026118,0.00036024,0
 .00008845,0.00023147,-0.00019412,0.00002147,-0.00000722,-0.00004736,-0
 .00003566,0.00051150,-0.00057454,-0.00007549,0.00001466,-0.00007468,0.
 00008661,0.00001026,-0.00001230,-0.00055666,0.00000347,0.00000928,0.00
 011413,-0.00001911,-0.00000524,0.00012282,0.00006663,-0.00002743,0.000
 20040,0.00001390,0.00003855,0.00259977,-0.11221502,-0.24554074,-0.0001
 5597,-0.01018895,-0.01759257,-0.00389804,0.12362263,0.26594615,0.00000
 190,0.00000871,-0.00000048,-0.00001432,-0.00000106,0.00000179,0.000063
 07,-0.00001243,-0.00001429,-0.00001656,-0.00000028,-0.00000118,0.00000
 658,-0.00000215,0.00000044,-0.00001703,-0.00000353,0.00000032,0.000002
 36,-0.00000237,0.00000132,0.00000383,0.00000226,0.00000253,-0.00000002
 ,0.00000054,0.00000078,0.00003517,-0.00162749,0.00016617,-0.00519215,0
 .00160705,0.00277539,-0.01048134,-0.02932867,0.00375320,0.00125686,-0.
 00189806,-0.00072118,0.00000112,0.00008419,-0.00002659,-0.00004728,0.0
 0023263,0.00006442,-0.00040711,0.00004316,0.00008728,-0.00003799,-0.00
 001046,-0.00009509,-0.00012985,0.00102527,0.00019547,0.00001509,0.0000
 0300,-0.00001699,0.00033709,-0.00003693,-0.00004812,-0.00007541,0.0000
 9789,0.00002773,-0.00007162,0.00004568,0.00000325,-0.00013642,0.000013
 46,-0.00002878,-0.07671517,-0.08108737,0.01364768,0.00724043,0.0187868
 3,-0.00170115,-0.00071138,0.00058913,-0.00054378,0.08508461,0.00000579
 ,0.00000893,-0.00000132,-0.00002086,0.00000719,0.00000115,0.00010411,-
 0.00001224,-0.00001935,-0.00002605,-0.00000209,0.00000480,0.00001040,-
 0.00000424,-0.00000210,-0.00002885,-0.00000331,0.00000038,0.00000440,-
 0.00000418,0.00000261,0.00000521,0.00000344,0.00000088,0.00000100,0.00
 000058,0.00000091,0.00038439,-0.00003749,-0.00014750,-0.00000789,0.000
 57709,0.00001964,0.00171083,0.00123633,-0.00072515,0.00171171,0.000719
 72,-0.00075639,-0.00011227,0.00019692,0.00007529,-0.00002975,0.0002738
 5,0.00000773,-0.00001123,0.00002350,0.00000691,0.00011711,0.00031432,-
 0.00005546,-0.00015465,0.00050640,0.00007842,-0.00002563,-0.00000873,0
 .00000868,0.00033878,0.00000833,-0.00004119,-0.00009394,0.00005970,0.0
 0003570,-0.00007518,-0.00001110,0.00000954,-0.00017947,0.00000460,-0.0
 0003248,-0.08629730,-0.28116373,0.03695924,-0.00479423,-0.01239429,0.0
 0080116,-0.00401823,-0.01263112,0.00299096,0.09147016,0.30233123,-0.00
 000096,-0.00000219,0.00000195,0.00000403,-0.00000186,-0.00000301,-0.00
 002332,0.00000013,0.00000521,0.00000583,-0.00000024,-0.00000028,-0.000
 00352,0.00000162,0.00000022,0.00000763,0.00000101,-0.00000077,-0.00000
 036,0.00000152,0.00000113,-0.00000101,-0.00000153,0.00000047,0.0000003
 9,-0.00000043,-0.00000009,0.00014891,0.00068691,0.00038918,0.00281642,
 -0.00065334,0.00042945,0.00349057,0.01202125,-0.00333842,-0.00065376,0
 .00080662,-0.00008981,-0.00006522,-0.00004321,-0.00011897,0.00006523,-
 0.00010168,0.00005798,0.00008972,-0.00002529,-0.00022001,-0.00009721,0
 .00000329,-0.00023182,0.00017843,-0.00043063,0.00022698,-0.00002163,-0
 .00000175,-0.00002538,-0.00014217,0.00002678,0.00004463,0.00003944,-0.
 00004697,-0.00001923,0.00002006,-0.00002304,-0.00001171,0.00005356,-0.
 00000303,-0.00000266,0.01368648,0.03478446,-0.05075301,0.00752503,0.01
 823146,-0.00295862,-0.00958919,-0.02600669,0.00526809,-0.01753033,-0.0
 3922334,0.05134849,-0.13130740,0.12981985,-0.00140172,-0.00952028,0.02
 547582,-0.00034401,-0.00365520,-0.00145099,0.00001656,-0.00084943,-0.0
 0066295,-0.00008205,-0.00141420,-0.00352554,0.00012648,0.01221269,-0.0
 1212143,0.00007161,0.00112487,-0.00017747,-0.00002450,-0.00001089,0.00
 005615,0.00000611,0.00069795,-0.00079671,0.00001513,0.00000011,-0.0000
 1999,-0.00000398,-0.00000012,-0.00000689,0.00000596,0.00000210,-0.0000
 0360,0.00000071,-0.00000764,-0.00000375,0.00001438,-0.00001014,0.00003
 837,0.00000317,-0.00004239,-0.00004274,-0.00008818,-0.00000134,-0.0000
 0308,-0.00000438,-0.00000158,-0.00000010,0.00000130,-0.00000631,0.0000
 0016,0.00000120,-0.00000652,0.00000331,-0.00000916,0.00023986,0.000265
 91,0.00084057,0.00004078,-0.00018074,-0.00012213,0.00000603,0.00003894
 ,-0.00015166,-0.00168153,0.00113334,-0.00040592,-0.00000217,0.00000222
 ,-0.00000115,-0.00000112,-0.00000081,0.00000110,-0.00000178,-0.0000004
 0,0.00000014,-0.00000104,-0.00000023,-0.00000004,0.13687434,0.12758731
 ,-0.27340439,0.00272922,-0.00303435,0.00595187,0.00009426,-0.00112258,
 0.00134661,-0.00000841,-0.00059875,0.00036022,0.00004270,-0.00401000,-
 0.00280897,0.00003013,0.01529236,-0.01798431,0.00036296,0.00008324,0.0
 0062035,-0.00008797,0.00008086,0.00000748,-0.00001634,0.00079800,-0.00
 081784,0.00002332,-0.00000570,-0.00001064,0.00000131,-0.00000303,-0.00
 000256,-0.00000245,0.00000264,-0.00000052,0.00000129,-0.00000621,0.000
 00176,0.00000136,-0.00000416,0.00001045,0.00000223,-0.00001561,-0.0000
 0303,-0.00001419,0.00000153,-0.00000222,-0.00000158,-0.00000093,0.0000
 0085,0.00000241,-0.00000335,-0.00000027,0.00000071,0.00000054,0.000002
 68,-0.00000244,0.00008230,0.00005823,0.00013093,-0.00002082,-0.0000369
 5,-0.00001018,-0.00002762,0.00000783,-0.00002501,-0.00050819,0.0002276
 8,-0.00008374,-0.00000014,0.00000232,-0.00000063,-0.00000147,-0.000000
 15,0.00000049,-0.00000083,0.00000006,0.00000100,-0.00000092,-0.0000014
 5,0.00000041,-0.13834445,0.28531998,-0.00146047,0.00271189,-0.03861702
 ,0.00013474,-0.00001932,0.00500083,0.00017812,0.00020590,0.00789344,0.
 00002006,-0.00007350,-0.00140639,0.00005061,0.00009385,0.00478532,-0.0
 0018824,0.00038639,0.00496254,0.00000501,-0.00003594,-0.00442492,0.000
 00487,-0.00000613,-0.00048888,-0.00000685,0.00001766,0.00066965,0.0000
 0752,0.00000447,-0.00000697,-0.00000013,-0.00000104,0.00000009,0.00000
 110,0.00000354,-0.00000131,-0.00000060,-0.00000972,-0.00000534,-0.0000
 0404,0.00000633,0.00000679,0.00000762,-0.00002807,-0.00000650,-0.00000
 062,0.00000114,0.00000151,0.00000244,-0.00000074,0.00000120,0.00000199
 ,0.00000106,0.00000440,-0.00000538,-0.00000211,0.00000011,-0.00000406,
 0.00022105,0.00020133,0.00003398,-0.00003552,-0.00005554,-0.00001393,-
 0.00001648,-0.00008747,-0.00024884,-0.00023683,-0.00051260,-0.00000002
 ,-0.00000224,0.00000094,0.00000102,0.00000079,-0.00000024,0.00000147,-
 0.00000072,-0.00000100,0.00000089,0.00000085,0.00000046,0.00154590,-0.
 00311989,0.02598639,-0.03525299,-0.01899013,0.00012434,0.00888834,-0.0
 0539958,0.00002821,-0.00835303,0.00001225,0.00107117,0.00888093,0.0054
 0952,-0.00012517,-0.03528447,0.01895239,-0.00039470,-0.11603586,-0.000
 00546,-0.00001533,0.00027807,0.00040286,0.00000036,0.00027730,-0.00040
 340,0.00001137,0.00119218,-0.00306149,0.00001938,0.00017526,0.00059019
 ,0.00000591,0.00024868,0.00016246,-0.00014325,-0.00030007,0.00005509,0
 .00012168,0.00025245,-0.00017038,-0.00015120,0.00015480,-0.00060766,0.
 00001772,0.00041576,0.00003243,0.00040202,-0.00014824,0.00012040,0.000
 04113,0.00009297,-0.00004864,-0.00006354,0.00009891,0.00004581,-0.0000
 6707,-0.00014938,-0.00011899,0.00004512,-0.00750282,-0.00008728,-0.007
 04993,0.00135922,0.00115781,0.00193106,0.00136114,-0.00111022,0.001961
 62,0.01084098,0.00002456,0.00207447,0.00005951,-0.00014308,-0.00000685
 ,0.00009829,0.00000895,-0.00000360,0.00006043,0.00001643,-0.00006199,0
 .00003222,0.00006283,-0.00001562,0.00119085,0.00306400,-0.00006362,0.6
 3814927,-0.02511110,0.01350606,-0.00024713,-0.00563336,-0.00677149,0.0
 0024633,0.00000294,-0.00535756,0.00006568,0.00564280,-0.00676596,0.000
 16499,0.02507638,0.01353671,-0.00018265,-0.00000612,-0.10631541,0.0003
 4332,-0.00170113,0.00040777,0.00002885,0.00170231,0.00040742,-0.000017
 58,0.00063713,-0.00332001,-0.00001282,0.00003649,0.00001812,-0.0000198
 5,-0.00001832,-0.00001838,0.00000357,-0.00000149,0.00001889,0.00000062
 ,0.00001990,-0.00001980,-0.00000357,-0.00003693,0.00001747,0.00002002,
 -0.00000064,-0.00006824,0.00000066,0.00000358,0.00000976,0.00000118,0.
 00001259,-0.00000189,-0.00000117,-0.00001282,-0.00000184,0.00000066,-0
 .00000399,0.00000960,-0.00000151,-0.00000508,0.00044638,-0.00000494,0.
 00003214,-0.00021251,-0.00005518,-0.00002972,-0.00021077,0.00005938,0.
 00000021,-0.00039810,-0.00001217,0.00000114,0.00000435,0.00000159,0.00
 000271,0.00000132,0.00000325,0.00000035,0.00000287,-0.00000501,-0.0000
 0287,-0.00000595,-0.00000047,-0.00063407,-0.00331778,-0.00001342,-0.00
 009117,0.93648647,0.00040241,-0.00010214,-0.00212557,-0.00001727,0.000
 22532,0.00820605,0.00035495,0.00006527,-0.00059493,-0.00016904,0.00018
 647,0.00820915,-0.00029096,-0.00032584,-0.00212615,-0.00020537,0.00034
 309,-0.08155740,0.00007224,0.00002007,0.00083561,0.00002579,-0.0000085
 2,0.00083627,-0.00001730,-0.00002966,-0.00422080,-0.00001021,-0.000004
 97,-0.00000057,0.00000204,0.00000485,0.00000070,-0.00000042,0.00000035
 ,0.00000264,0.00000156,-0.00000503,0.00000128,-0.00000974,0.00000462,-
 0.00000038,-0.00003173,0.00000010,-0.00006243,-0.00000160,0.00000300,0
 .00000194,0.00000127,-0.00000081,0.00000266,0.00000164,0.00000102,0.00
 000259,-0.00000173,-0.00000303,0.00000159,-0.00019108,-0.00000205,0.00
 028876,0.00005020,-0.00004325,-0.00011279,0.00005108,0.00004619,-0.000
 11600,-0.00028569,-0.00001460,-0.00136781,0.00000010,-0.00000091,-0.00
 000054,0.00000007,0.00000094,-0.00000059,0.00000124,-0.00000102,-0.000
 00072,0.00000089,0.00000053,0.00000065,-0.00000064,0.00000311,-0.00422
 140,0.00148755,-0.00959319,0.23165999,-0.00438037,0.00716786,-0.000117
 74,-0.00345655,-0.00116046,0.00003253,0.00257955,-0.00179126,-0.000303
 05,-0.00037459,-0.00132813,0.00005988,-0.00285273,-0.00226628,0.000022
 47,-0.03690118,-0.04933300,0.00050139,-0.00082855,0.00009674,0.0000252
 7,-0.00012613,0.00009586,-0.00000782,-0.00425240,-0.00081410,0.0000082
 9,-0.00007042,-0.00023071,-0.00000162,-0.00009740,-0.00006340,0.000053
 89,0.00012228,-0.00002546,-0.00004756,-0.00010398,0.00007692,0.0000576
 2,-0.00004830,0.00022602,-0.00001761,-0.00017449,0.00000309,-0.0001439
 1,0.00005980,-0.00004839,-0.00001369,-0.00003899,0.00002053,0.00002517
 ,-0.00003452,-0.00001851,0.00002607,0.00006727,0.00004632,-0.00001020,
 0.00284476,-0.00022126,0.00260710,-0.00061013,-0.00025738,-0.00070230,
 -0.00052673,0.00047242,-0.00075327,-0.00387987,0.00011940,-0.00089348,
 -0.00002378,0.00005691,0.00000352,-0.00004008,-0.00000356,0.00000014,-
 0.00002420,-0.00000728,0.00002597,-0.00001175,-0.00002392,0.00000622,0
 .00038432,-0.00009214,0.00001160,-0.23541261,-0.17601815,0.00178520,0.
 24074834,-0.00020579,0.00303405,-0.00000462,-0.00157832,0.00133542,-0.
 00007391,0.00237611,0.00020865,-0.00021402,-0.00287278,0.00090067,-0.0
 0001014,0.00879776,-0.00720258,0.00016942,-0.03485101,-0.01245547,0.00
 030932,-0.00020824,0.00001070,0.00001221,-0.00024690,-0.00003159,-0.00
 001352,0.00032164,0.00326045,-0.00003378,-0.00005480,-0.00011701,0.000
 00754,-0.00003027,-0.00001163,0.00002692,0.00005114,-0.00002179,-0.000
 02324,-0.00005191,0.00004253,0.00003124,-0.00000734,0.00009052,-0.0000
 2333,-0.00005887,0.00003646,-0.00006141,0.00001764,-0.00002485,-0.0000
 1031,-0.00002480,0.00000965,0.00001128,-0.00000853,-0.00000630,0.00001
 060,0.00003247,0.00001695,-0.00000262,0.00140382,-0.00047855,0.0013707
 0,-0.00029691,0.00002522,-0.00031706,-0.00015595,0.00043239,-0.0004021
 6,-0.00216231,0.00052999,-0.00041606,-0.00001183,0.00002226,-0.0000001
 0,-0.00001815,-0.00000254,-0.00000102,-0.00001053,-0.00000455,0.000013
 30,-0.00000308,-0.00000626,0.00000272,0.00146880,0.00121202,0.00000408
 ,-0.17309433,-0.41618450,0.00388130,0.21333965,0.54715206,-0.00006362,
 -0.00001078,0.00317801,0.00005350,-0.00005310,-0.00122824,-0.00010364,
 0.00001172,0.00009732,0.00005449,-0.00001485,-0.00069216,-0.00015024,0
 .00013090,0.00134917,0.00031992,0.00027311,0.01937934,-0.00001611,-0.0
 0000640,-0.00044951,-0.00000672,0.00000466,0.00001465,-0.00000255,-0.0
 0004872,-0.00009125,0.00000188,0.00000162,-0.00000004,-0.00000009,-0.0
 0000328,0.00000599,0.00000192,0.,-0.00000076,-0.00000251,0.00000116,0.
 00000094,-0.00000046,0.00000321,0.00000336,0.00000135,-0.00000494,0.00
 001428,0.00000234,-0.00000183,-0.00000469,-0.00000181,0.00000084,-0.00
 000239,-0.00000156,-0.00000073,-0.00000118,0.00000060,0.00000020,-0.00
 000244,-0.00000343,0.00002005,-0.00015842,-0.00001422,0.00000744,0.000
 04299,-0.00001634,-0.00003248,0.00006038,0.00011664,-0.00001843,0.0001
 5130,-0.00000053,0.00000029,-0.00000089,-0.00000023,-0.00000056,0.0000
 0008,-0.00000126,0.00000080,0.00000093,-0.00000067,-0.00000036,-0.0000
 0042,-0.00001655,-0.00001276,0.00041110,0.00176507,0.00406915,-0.07675
 330,-0.00216440,-0.00629730,0.02815792,-0.00284752,0.00226960,-0.00003
 810,-0.00037734,0.00132773,0.00002220,0.00257934,0.00178480,-0.0003526
 2,-0.00345834,0.00115728,0.00000198,-0.00437535,-0.00717389,0.00007918
 ,-0.03696331,0.04931152,-0.00084329,-0.00012623,-0.00009588,-0.0000049
 6,-0.00082870,-0.00009641,0.00002792,0.00038531,0.00009182,0.00000929,
 -0.00005647,-0.00021837,-0.00001279,-0.00010232,-0.00007383,0.00005448
 ,0.00012188,-0.00001830,-0.00004705,-0.00009925,0.00006613,0.00005676,
 -0.00006176,0.00023733,-0.00000634,-0.00017498,-0.00002825,-0.00014303
 ,0.00006694,-0.00004709,-0.00000882,-0.00003226,0.00001955,0.00002445,
 -0.00004145,-0.00001940,0.00002666,0.00006000,0.00004801,-0.00001530,0
 .00284573,0.00028782,0.00260067,-0.00052583,-0.00049111,-0.00074022,-0
 .00061149,0.00023949,-0.00070965,-0.00388074,-0.00014211,-0.00088998,-
 0.00002260,0.00005710,0.00000327,-0.00003863,-0.00000292,0.00000198,-0
 .00002392,-0.00000565,0.00002377,-0.00001387,-0.00002704,0.00000639,-0
 .00425283,0.00080848,-0.00001214,-0.23566809,0.17613629,-0.00300548,0.
 04746342,-0.01185636,0.00024922,0.24106066,-0.00879498,-0.00720872,0.0
 0006587,0.00287166,0.00090301,-0.00003265,-0.00237522,0.00021346,0.000
 21008,0.00157543,0.00133911,0.00000378,0.00019844,0.00302952,0.0000084
 5,0.03482930,-0.01238696,0.00055604,0.00024640,-0.00003138,0.00001501,
 0.00020713,0.00001022,-0.00002509,-0.00146928,0.00121064,-0.00002639,0
 .00001055,0.00008654,0.00002136,0.00005092,0.00004053,-0.00002966,-0.0
 0004970,-0.00000338,0.00002271,0.00003043,-0.00001227,-0.00002832,0.00
 005122,-0.00011918,-0.00000539,0.00005945,0.00004743,0.00005950,-0.000
 03198,0.00001726,0.00000223,0.00000762,-0.00000669,-0.00000995,0.00002
 587,0.00000902,-0.00001145,-0.00001769,-0.00002447,0.00001103,-0.00140
 177,-0.00051246,-0.00135831,0.00015490,0.00044216,0.00039144,0.0002965
 9,0.00003332,0.00031682,0.00216077,0.00053982,0.00040393,0.00000935,-0
 .00002502,-0.00000158,0.00001468,0.00000075,-0.00000310,0.00000992,0.0
 0000078,-0.00000703,0.00000774,0.00001406,-0.00000250,-0.00032695,0.00
 326071,-0.00005735,0.17321382,-0.41590298,0.00534878,0.01198167,-0.121
 77238,0.00198135,-0.21354634,0.54680754,0.00009005,0.00010338,0.001348
 46,-0.00002375,-0.00002905,-0.00069056,-0.00003840,-0.00001407,0.00009
 183,0.00000947,-0.00001873,-0.00123022,-0.00006737,0.00001553,0.003177
 44,-0.00062737,0.00059187,0.01937344,-0.00001309,-0.00000344,0.0000142
 1,-0.00002179,-0.00000612,-0.00044890,0.00002327,-0.00000886,0.0004114
 3,-0.00000161,-0.00000555,0.00000240,-0.00000328,-0.00000211,0.0000025
 6,0.00000316,-0.00000069,-0.00000173,-0.00000112,0.00000343,0.00000653
 ,0.00000110,0.00000185,0.00000005,-0.00000002,0.00000393,0.00001261,0.
 00000164,-0.00000083,-0.00000252,-0.00000177,0.00000100,-0.00000105,-0
 .00000251,-0.00000094,-0.00000210,0.00000275,0.00000238,-0.00000477,0.
 00003466,-0.00001045,-0.00012077,-0.00002079,0.00002181,0.00004876,-0.
 00002230,-0.00000690,0.00003460,0.00005780,0.00000819,0.00013972,-0.00
 000080,0.00000148,-0.00000041,-0.00000077,-0.00000075,0.00000047,-0.00
 000155,0.00000084,0.00000083,-0.00000093,-0.00000073,-0.00000069,0.000
 00575,-0.00004224,-0.00009054,-0.00294632,0.00516142,-0.07678851,-0.00
 007568,0.00205396,0.02651794,0.00364157,-0.00781962,0.02819949\\-0.000
 00549,0.00000156,0.00000080,0.00000540,-0.00000298,-0.00000071,-0.0000
 0025,0.00000798,0.00000180,0.00000205,-0.00000824,-0.00000144,-0.00000
 446,0.00000664,0.00000037,0.00000373,-0.00000395,0.00000001,-0.0000001
 9,-0.00000022,0.00000040,-0.00000070,0.00000269,-0.00000063,-0.0000004
 9,-0.00000159,-0.00000089,0.00000553,-0.00000802,-0.00000116,-0.000004
 73,0.00000102,-0.00000056,0.00000156,0.00000341,0.00000106,0.00000084,
 -0.00000596,0.00000088,0.00000300,-0.00000297,-0.00000184,-0.00000208,
 0.00000581,0.00000052,0.00000093,0.00000220,-0.00000076,-0.00000033,0.
 00000001,0.00000027,0.00000009,0.00000173,0.00000025,-0.00000155,0.000
 00279,0.00000181,-0.00000296,-0.00000621,-0.00000028,0.00000034,0.0000
 0231,0.00000205,0.00000061,0.00000159,-0.00000076,0.00000038,-0.000000
 43,-0.00000154,0.00000024,0.00000017,0.00000051,-0.00000140,0.00000038
 ,-0.00000085,-0.00000002,0.00000093,0.00000145,-0.00000084,-0.00000072
 ,0.00000060,0.00000104,-0.00000093,0.00000017,0.00000398,0.00000138,-0
 .00000193,-0.00000222,-0.00000483,0.,-0.00000201,0.00000446,0.00000038
 \\\@


 The impersonal hand of government can
 never replace the helping hand of a neighbor.
                        -- Hubert H. Humphrey
 Job cpu time:  1 days  6 hours 43 minutes 29.7 seconds.
 File lengths (MBytes):  RWF=    939 Int=      0 D2E=      0 Chk=     20 Scr=      1
 Normal termination of Gaussian 09 at Thu Jun  9 20:01:09 2005.
