 Entering Gaussian System, Link 0=/home/ubuntu/g09/g09
 Input=m-NO2-Ph-OTf-RB3LYP-aug-cc-pVDZ-T348-Water.gjf
 Output=m-NO2-Ph-OTf-RB3LYP-aug-cc-pVDZ-T348-Water.log
 Initial command:
 /home/ubuntu/g09/l1.exe /home/ubuntu/g09/Gau-18163.inp -scrdir=/home/ubuntu/g09/
 Entering Link 1 = /home/ubuntu/g09/l1.exe PID=     18165.
  
 Copyright (c) 1988,1990,1992,1993,1995,1998,2003,2009,2010,
            Gaussian, Inc.  All Rights Reserved.
  
 This is part of the Gaussian(R) 09 program.  It is based on
 the Gaussian(R) 03 system (copyright 2003, Gaussian, Inc.),
 the Gaussian(R) 98 system (copyright 1998, Gaussian, Inc.),
 the Gaussian(R) 94 system (copyright 1995, Gaussian, Inc.),
 the Gaussian 92(TM) system (copyright 1992, Gaussian, Inc.),
 the Gaussian 90(TM) system (copyright 1990, Gaussian, Inc.),
 the Gaussian 88(TM) system (copyright 1988, Gaussian, Inc.),
 the Gaussian 86(TM) system (copyright 1986, Carnegie Mellon
 University), and the Gaussian 82(TM) system (copyright 1983,
 Carnegie Mellon University). Gaussian is a federally registered
 trademark of Gaussian, Inc.
  
 This software contains proprietary and confidential information,
 including trade secrets, belonging to Gaussian, Inc.
  
 This software is provided under written license and may be
 used, copied, transmitted, or stored only in accord with that
 written license.
  
 The following legend is applicable only to US Government
 contracts under FAR:
  
                    RESTRICTED RIGHTS LEGEND
  
 Use, reproduction and disclosure by the US Government is
 subject to restrictions as set forth in subparagraphs (a)
 and (c) of the Commercial Computer Software - Restricted
 Rights clause in FAR 52.227-19.
  
 Gaussian, Inc.
 340 Quinnipiac St., Bldg. 40, Wallingford CT 06492
  
  
 ---------------------------------------------------------------
 Warning -- This program may not be used in any manner that
 competes with the business of Gaussian, Inc. or will provide
 assistance to any competitor of Gaussian, Inc.  The licensee
 of this program is prohibited from giving any competitor of
 Gaussian, Inc. access to this program.  By using this program,
 the user acknowledges that Gaussian, Inc. is engaged in the
 business of creating and licensing software in the field of
 computational chemistry and represents and warrants to the
 licensee that it is not a competitor of Gaussian, Inc. and that
 it will not use this program in any manner prohibited above.
 ---------------------------------------------------------------
  

 Cite this work as:
 Gaussian 09, Revision B.01,
 M. J. Frisch, G. W. Trucks, H. B. Schlegel, G. E. Scuseria, 
 M. A. Robb, J. R. Cheeseman, G. Scalmani, V. Barone, B. Mennucci, 
 G. A. Petersson, H. Nakatsuji, M. Caricato, X. Li, H. P. Hratchian, 
 A. F. Izmaylov, J. Bloino, G. Zheng, J. L. Sonnenberg, M. Hada, 
 M. Ehara, K. Toyota, R. Fukuda, J. Hasegawa, M. Ishida, T. Nakajima, 
 Y. Honda, O. Kitao, H. Nakai, T. Vreven, J. A. Montgomery, Jr., 
 J. E. Peralta, F. Ogliaro, M. Bearpark, J. J. Heyd, E. Brothers, 
 K. N. Kudin, V. N. Staroverov, T. Keith, R. Kobayashi, J. Normand, 
 K. Raghavachari, A. Rendell, J. C. Burant, S. S. Iyengar, J. Tomasi, 
 M. Cossi, N. Rega, J. M. Millam, M. Klene, J. E. Knox, J. B. Cross, 
 V. Bakken, C. Adamo, J. Jaramillo, R. Gomperts, R. E. Stratmann, 
 O. Yazyev, A. J. Austin, R. Cammi, C. Pomelli, J. W. Ochterski, 
 R. L. Martin, K. Morokuma, V. G. Zakrzewski, G. A. Voth, 
 P. Salvador, J. J. Dannenberg, S. Dapprich, A. D. Daniels, 
 O. Farkas, J. B. Foresman, J. V. Ortiz, J. Cioslowski, 
 and D. J. Fox, Gaussian, Inc., Wallingford CT, 2010.
 
 ******************************************
 Gaussian 09:  EM64L-G09RevB.01 12-Aug-2010
                20-Aug-2019 
 ******************************************
 %mem=500MW
 %nproc=7
 Will use up to    7 processors via shared memory.
 ----------------------------------------------------------------------
 #p scrf=(cpcm,solvent=water) opt Temperature=348.15 int=(grid=ultrafin
 e) CPHF=(grid=fine) freq rb3lyp/aug-cc-pvdz
 ----------------------------------------------------------------------
 1/14=-1,18=20,19=15,26=3,38=1,112=348150/1,3;
 2/9=110,12=2,17=6,18=5,40=1/2;
 3/5=16,7=10,11=2,16=1,25=1,30=1,70=2101,71=1,72=1,74=-5,75=-5,116=1/1,2,3;
 4//1;
 5/5=2,38=5,53=1,96=4/2;
 6/7=2,8=2,9=2,10=2,28=1/1;
 7//1,2,3,16;
 1/14=-1,18=20,19=15/3(2);
 2/9=110/2;
 99//99;
 2/9=110/2;
 3/5=16,7=10,11=2,16=1,25=1,30=1,70=2105,71=1,72=1,74=-5,75=-5,116=1/1,2,3;
 4/5=5,16=3/1;
 5/5=2,38=5,53=1,96=4/2;
 7//1,2,3,16;
 1/14=-1,18=20,19=15/3(-5);
 2/9=110/2;
 6/7=2,8=2,9=2,10=2,19=2,28=1/1;
 99/9=1/99;
 Leave Link    1 at Tue Aug 20 14:48:04 2019, MaxMem=  524288000 cpu:       0.3
 (Enter /home/ubuntu/g09/l101.exe)
 ---------------------------------
 m-NO2-Ph-OTf-RB3LYP-aug-cc-pVDZ--
 ---------------------------------
 Symbolic Z-matrix:
 Charge =  0 Multiplicity = 1
 C                     2.31453   2.30688  -0.20304 
 C                     0.97299   1.95869  -0.38469 
 C                     0.62535   0.60673  -0.42327 
 C                     1.57065  -0.40544  -0.2864 
 C                     2.89945  -0.01925  -0.11283 
 C                     3.29188   1.31878  -0.06601 
 H                     2.60004   3.35756  -0.17219 
 H                     0.20066   2.71718  -0.49751 
 H                     1.29105  -1.45457  -0.3169 
 S                    -1.73505   0.1802    0.65104 
 C                    -3.20385  -0.47914  -0.37017 
 O                    -0.70893   0.24613  -0.68173 
 O                    -1.29008  -0.87006   1.58116 
 O                    -2.0535    1.54334   1.10843 
 F                    -3.52009   0.39457  -1.32393 
 F                    -2.88869  -1.6546   -0.90885 
 F                    -4.22803  -0.62369   0.47291 
 H                     4.34095   1.56658   0.07237 
 N                     3.92765  -1.07487   0.02306 
 O                     5.08837  -0.71667   0.1988 
 O                     3.55663  -2.24222  -0.04999 
 
 NAtoms=     21 NQM=     21 NQMF=      0 NMic=      0 NMicF=      0 NTot=     21.
                    Isotopes and Nuclear Properties:
 (Nuclear quadrupole moments (NQMom) in fm**2, nuclear magnetic moments (NMagM)
  in nuclear magnetons)

  Atom         1           2           3           4           5           6           7           8           9          10
 IAtWgt=          12          12          12          12          12          12           1           1           1          32
 AtmWgt=  12.0000000  12.0000000  12.0000000  12.0000000  12.0000000  12.0000000   1.0078250   1.0078250   1.0078250  31.9720718
 NucSpn=           0           0           0           0           0           0           1           1           1           0
 AtZEff=   0.0000000   0.0000000   0.0000000   0.0000000   0.0000000   0.0000000   0.0000000   0.0000000   0.0000000   0.0000000
 NQMom=    0.0000000   0.0000000   0.0000000   0.0000000   0.0000000   0.0000000   0.0000000   0.0000000   0.0000000   0.0000000
 NMagM=    0.0000000   0.0000000   0.0000000   0.0000000   0.0000000   0.0000000   2.7928460   2.7928460   2.7928460   0.0000000

  Atom        11          12          13          14          15          16          17          18          19          20
 IAtWgt=          12          16          16          16          19          19          19           1          14          16
 AtmWgt=  12.0000000  15.9949146  15.9949146  15.9949146  18.9984033  18.9984033  18.9984033   1.0078250  14.0030740  15.9949146
 NucSpn=           0           0           0           0           1           1           1           1           2           0
 AtZEff=   0.0000000   0.0000000   0.0000000   0.0000000   0.0000000   0.0000000   0.0000000   0.0000000   0.0000000   0.0000000
 NQMom=    0.0000000   0.0000000   0.0000000   0.0000000   0.0000000   0.0000000   0.0000000   0.0000000   2.0440000   0.0000000
 NMagM=    0.0000000   0.0000000   0.0000000   0.0000000   2.6288670   2.6288670   2.6288670   2.7928460   0.4037610   0.0000000

  Atom        21
 IAtWgt=          16
 AtmWgt=  15.9949146
 NucSpn=           0
 AtZEff=   0.0000000
 NQMom=    0.0000000
 NMagM=    0.0000000
 Leave Link  101 at Tue Aug 20 14:48:04 2019, MaxMem=  524288000 cpu:       0.4
 (Enter /home/ubuntu/g09/l103.exe)

 GradGradGradGradGradGradGradGradGradGradGradGradGradGradGradGradGradGrad
 Berny optimization.
 Initialization pass.
                           ----------------------------
                           !    Initial Parameters    !
                           ! (Angstroms and Degrees)  !
 --------------------------                            --------------------------
 ! Name  Definition              Value          Derivative Info.                !
 --------------------------------------------------------------------------------
 ! R1    R(1,2)                  1.3978         estimate D2E/DX2                !
 ! R2    R(1,6)                  1.3965         estimate D2E/DX2                !
 ! R3    R(1,7)                  1.0892         estimate D2E/DX2                !
 ! R4    R(2,3)                  1.3965         estimate D2E/DX2                !
 ! R5    R(2,8)                  1.0884         estimate D2E/DX2                !
 ! R6    R(3,4)                  1.3917         estimate D2E/DX2                !
 ! R7    R(3,12)                 1.4061         estimate D2E/DX2                !
 ! R8    R(4,5)                  1.3946         estimate D2E/DX2                !
 ! R9    R(4,9)                  1.0862         estimate D2E/DX2                !
 ! R10   R(5,6)                  1.3952         estimate D2E/DX2                !
 ! R11   R(5,19)                 1.4799         estimate D2E/DX2                !
 ! R12   R(6,18)                 1.0868         estimate D2E/DX2                !
 ! R13   R(10,11)                1.9066         estimate D2E/DX2                !
 ! R14   R(10,12)                1.6833         estimate D2E/DX2                !
 ! R15   R(10,13)                1.4718         estimate D2E/DX2                !
 ! R16   R(10,14)                1.4727         estimate D2E/DX2                !
 ! R17   R(11,15)                1.3316         estimate D2E/DX2                !
 ! R18   R(11,16)                1.3309         estimate D2E/DX2                !
 ! R19   R(11,17)                1.3344         estimate D2E/DX2                !
 ! R20   R(19,20)                1.2274         estimate D2E/DX2                !
 ! R21   R(19,21)                1.2271         estimate D2E/DX2                !
 ! A1    A(2,1,6)              120.5412         estimate D2E/DX2                !
 ! A2    A(2,1,7)              119.7043         estimate D2E/DX2                !
 ! A3    A(6,1,7)              119.754          estimate D2E/DX2                !
 ! A4    A(1,2,3)              118.9244         estimate D2E/DX2                !
 ! A5    A(1,2,8)              121.3941         estimate D2E/DX2                !
 ! A6    A(3,2,8)              119.6814         estimate D2E/DX2                !
 ! A7    A(2,3,4)              122.1611         estimate D2E/DX2                !
 ! A8    A(2,3,12)             119.3131         estimate D2E/DX2                !
 ! A9    A(4,3,12)             118.4315         estimate D2E/DX2                !
 ! A10   A(3,4,5)              117.2599         estimate D2E/DX2                !
 ! A11   A(3,4,9)              121.6599         estimate D2E/DX2                !
 ! A12   A(5,4,9)              121.0797         estimate D2E/DX2                !
 ! A13   A(4,5,6)              122.5304         estimate D2E/DX2                !
 ! A14   A(4,5,19)             118.418          estimate D2E/DX2                !
 ! A15   A(6,5,19)             119.0514         estimate D2E/DX2                !
 ! A16   A(1,6,5)              118.5818         estimate D2E/DX2                !
 ! A17   A(1,6,18)             121.7839         estimate D2E/DX2                !
 ! A18   A(5,6,18)             119.6342         estimate D2E/DX2                !
 ! A19   A(11,10,12)            93.3868         estimate D2E/DX2                !
 ! A20   A(11,10,13)           108.9434         estimate D2E/DX2                !
 ! A21   A(11,10,14)           108.6553         estimate D2E/DX2                !
 ! A22   A(12,10,13)           110.1216         estimate D2E/DX2                !
 ! A23   A(12,10,14)           109.9664         estimate D2E/DX2                !
 ! A24   A(13,10,14)           121.9795         estimate D2E/DX2                !
 ! A25   A(10,11,15)           109.859          estimate D2E/DX2                !
 ! A26   A(10,11,16)           109.8653         estimate D2E/DX2                !
 ! A27   A(10,11,17)           106.8784         estimate D2E/DX2                !
 ! A28   A(15,11,16)           110.2343         estimate D2E/DX2                !
 ! A29   A(15,11,17)           109.9586         estimate D2E/DX2                !
 ! A30   A(16,11,17)           109.987          estimate D2E/DX2                !
 ! A31   A(3,12,10)            116.2926         estimate D2E/DX2                !
 ! A32   A(5,19,20)            117.5182         estimate D2E/DX2                !
 ! A33   A(5,19,21)            117.5848         estimate D2E/DX2                !
 ! A34   A(20,19,21)           124.897          estimate D2E/DX2                !
 ! D1    D(6,1,2,3)              0.1729         estimate D2E/DX2                !
 ! D2    D(6,1,2,8)           -179.7177         estimate D2E/DX2                !
 ! D3    D(7,1,2,3)            179.9258         estimate D2E/DX2                !
 ! D4    D(7,1,2,8)              0.0351         estimate D2E/DX2                !
 ! D5    D(2,1,6,5)             -0.0762         estimate D2E/DX2                !
 ! D6    D(2,1,6,18)           179.7689         estimate D2E/DX2                !
 ! D7    D(7,1,6,5)           -179.829          estimate D2E/DX2                !
 ! D8    D(7,1,6,18)             0.0161         estimate D2E/DX2                !
 ! D9    D(1,2,3,4)              0.0197         estimate D2E/DX2                !
 ! D10   D(1,2,3,12)          -176.3916         estimate D2E/DX2                !
 ! D11   D(8,2,3,4)            179.9123         estimate D2E/DX2                !
 ! D12   D(8,2,3,12)             3.501          estimate D2E/DX2                !
 ! D13   D(2,3,4,5)             -0.2973         estimate D2E/DX2                !
 ! D14   D(2,3,4,9)            179.9515         estimate D2E/DX2                !
 ! D15   D(12,3,4,5)           176.1443         estimate D2E/DX2                !
 ! D16   D(12,3,4,9)            -3.6068         estimate D2E/DX2                !
 ! D17   D(2,3,12,10)          -86.4014         estimate D2E/DX2                !
 ! D18   D(4,3,12,10)           97.0531         estimate D2E/DX2                !
 ! D19   D(3,4,5,6)              0.4006         estimate D2E/DX2                !
 ! D20   D(3,4,5,19)          -179.4541         estimate D2E/DX2                !
 ! D21   D(9,4,5,6)           -179.8467         estimate D2E/DX2                !
 ! D22   D(9,4,5,19)             0.2986         estimate D2E/DX2                !
 ! D23   D(4,5,6,1)             -0.2201         estimate D2E/DX2                !
 ! D24   D(4,5,6,18)           179.9313         estimate D2E/DX2                !
 ! D25   D(19,5,6,1)           179.6337         estimate D2E/DX2                !
 ! D26   D(19,5,6,18)           -0.2148         estimate D2E/DX2                !
 ! D27   D(4,5,19,20)         -178.7395         estimate D2E/DX2                !
 ! D28   D(4,5,19,21)            1.3492         estimate D2E/DX2                !
 ! D29   D(6,5,19,20)            1.4006         estimate D2E/DX2                !
 ! D30   D(6,5,19,21)         -178.5107         estimate D2E/DX2                !
 ! D31   D(12,10,11,15)        -60.0941         estimate D2E/DX2                !
 ! D32   D(12,10,11,16)         61.3385         estimate D2E/DX2                !
 ! D33   D(12,10,11,17)       -179.3591         estimate D2E/DX2                !
 ! D34   D(13,10,11,15)       -172.7167         estimate D2E/DX2                !
 ! D35   D(13,10,11,16)        -51.2841         estimate D2E/DX2                !
 ! D36   D(13,10,11,17)         68.0183         estimate D2E/DX2                !
 ! D37   D(14,10,11,15)         52.3025         estimate D2E/DX2                !
 ! D38   D(14,10,11,16)        173.7351         estimate D2E/DX2                !
 ! D39   D(14,10,11,17)        -66.9625         estimate D2E/DX2                !
 ! D40   D(11,10,12,3)        -175.336          estimate D2E/DX2                !
 ! D41   D(13,10,12,3)         -63.7423         estimate D2E/DX2                !
 ! D42   D(14,10,12,3)          73.4147         estimate D2E/DX2                !
 --------------------------------------------------------------------------------
 Trust Radius=3.00D-01 FncErr=1.00D-07 GrdErr=1.00D-06
 Number of steps in this run=    107 maximum allowed number of steps=    126.
 GradGradGradGradGradGradGradGradGradGradGradGradGradGradGradGradGradGrad

 Leave Link  103 at Tue Aug 20 14:48:04 2019, MaxMem=  524288000 cpu:       0.0
 (Enter /home/ubuntu/g09/l202.exe)
                          Input orientation:                          
 ---------------------------------------------------------------------
 Center     Atomic      Atomic             Coordinates (Angstroms)
 Number     Number       Type             X           Y           Z
 ---------------------------------------------------------------------
      1          6           0        2.314530    2.306880   -0.203040
      2          6           0        0.972990    1.958690   -0.384690
      3          6           0        0.625350    0.606730   -0.423270
      4          6           0        1.570650   -0.405440   -0.286400
      5          6           0        2.899450   -0.019250   -0.112830
      6          6           0        3.291880    1.318780   -0.066010
      7          1           0        2.600040    3.357560   -0.172190
      8          1           0        0.200660    2.717180   -0.497510
      9          1           0        1.291050   -1.454570   -0.316900
     10         16           0       -1.735050    0.180200    0.651040
     11          6           0       -3.203850   -0.479140   -0.370170
     12          8           0       -0.708930    0.246130   -0.681730
     13          8           0       -1.290080   -0.870060    1.581160
     14          8           0       -2.053500    1.543340    1.108430
     15          9           0       -3.520090    0.394570   -1.323930
     16          9           0       -2.888690   -1.654600   -0.908850
     17          9           0       -4.228030   -0.623690    0.472910
     18          1           0        4.340950    1.566580    0.072370
     19          7           0        3.927650   -1.074870    0.023060
     20          8           0        5.088370   -0.716670    0.198800
     21          8           0        3.556630   -2.242220   -0.049990
 ---------------------------------------------------------------------
                    Distance matrix (angstroms):
                    1          2          3          4          5
     1  C    0.000000
     2  C    1.397842   0.000000
     3  C    2.406728   1.396473   0.000000
     4  C    2.813714   2.440485   1.391695   0.000000
     5  C    2.400240   2.774419   2.379024   1.394625   0.000000
     6  C    1.396543   2.426580   2.782990   2.446250   1.395177
     7  H    1.089218   2.156220   3.395513   3.902929   3.390577
     8  H    2.173363   1.088361   2.154036   3.416460   3.862576
     9  H    3.899869   3.428717   2.168739   1.086177   2.165350
    10  S    4.653098   3.401359   2.628223   3.485602   4.701262
    11  C    6.184041   4.836240   3.980541   4.775804   6.126010
    12  O    3.690142   2.418667   1.406107   2.403604   3.662578
    13  O    5.125381   4.121635   3.141261   3.447815   4.598439
    14  O    4.624136   3.400230   3.224838   4.344854   5.335249
    15  F    6.241483   4.849372   4.247455   5.256626   6.545877
    16  F    6.577613   5.314431   4.206885   4.672639   6.067172
    17  F    7.200711   5.869819   5.086489   5.852254   7.177006
    18  H    2.174919   3.421375   3.869451   3.419377   2.151064
    19  N    3.753600   4.254264   3.732583   2.469686   1.479863
    20  O    4.122805   4.943113   4.696478   3.564637   2.318378
    21  O    4.718108   4.943163   4.104663   2.715468   2.318929
                    6          7          8          9         10
     6  C    0.000000
     7  H    2.155584   0.000000
     8  H    3.420140   2.504585   0.000000
     9  H    3.428956   4.989087   4.315677   0.000000
    10  S    5.203898   5.437493   3.391520   3.573047   0.000000
    11  C    6.746817   6.960216   4.671548   4.599829   1.906560
    12  O    4.187621   4.570548   2.639579   2.650547   1.683314
    13  O    5.338403   6.006666   4.405844   3.256765   1.471791
    14  O    5.477483   5.156241   3.006357   4.712223   1.472673
    15  F    6.988524   6.896507   4.463347   5.251714   2.670736
    16  F    6.910196   7.469309   5.368961   4.226185   2.670325
    17  F    7.785414   7.930261   5.631734   5.636879   2.625437
    18  H    1.086785   2.509619   4.334818   4.310542   6.258968
    19  N    2.478245   4.631102   5.342386   2.685406   5.834015
    20  O    2.727739   4.788400   6.013808   3.902574   6.896953
    21  O    3.570864   5.682212   6.004869   2.413397   5.861863
                   11         12         13         14         15
    11  C    0.000000
    12  O    2.616813   0.000000
    13  O    2.760982   2.589264   0.000000
    14  O    2.756808   2.587527   2.575031   0.000000
    15  F    1.331554   2.887399   3.874504   3.063810   0.000000
    16  F    1.330867   2.900985   3.061243   3.872180   2.184046
    17  F    1.334400   3.804451   3.149677   3.135042   2.183270
    18  H    7.829739   5.273855   6.318399   6.477882   8.069648
    19  N    7.167134   4.872335   5.449250   6.618701   7.709894
    20  O    8.315110   5.942306   6.528328   7.545951   8.812443
    21  O    6.993930   4.978552   5.294721   6.866292   7.658691
                   16         17         18         19         20
    16  F    0.000000
    17  F    2.183087   0.000000
    18  H    7.975368   8.853538   0.000000
    19  N    6.904132   8.180528   2.674043   0.000000
    20  O    8.108026   9.320895   2.405795   1.227380   0.000000
    21  O    6.528789   7.968312   3.890641   1.227069   2.176104
                   21
    21  O    0.000000
 Stoichiometry    C7H4F3NO5S
 Framework group  C1[X(C7H4F3NO5S)]
 Deg. of freedom    57
 Full point group                 C1      NOp   1
 Largest Abelian subgroup         C1      NOp   1
 Largest concise Abelian subgroup C1      NOp   1
                         Standard orientation:                         
 ---------------------------------------------------------------------
 Center     Atomic      Atomic             Coordinates (Angstroms)
 Number     Number       Type             X           Y           Z
 ---------------------------------------------------------------------
      1          6           0        2.314530    2.306879   -0.203039
      2          6           0        0.972990    1.958690   -0.384689
      3          6           0        0.625350    0.606730   -0.423269
      4          6           0        1.570649   -0.405441   -0.286399
      5          6           0        2.899449   -0.019251   -0.112829
      6          6           0        3.291880    1.318779   -0.066009
      7          1           0        2.600040    3.357559   -0.172189
      8          1           0        0.200660    2.717180   -0.497509
      9          1           0        1.291049   -1.454571   -0.316899
     10         16           0       -1.735051    0.180200    0.651041
     11          6           0       -3.203851   -0.479140   -0.370169
     12          8           0       -0.708931    0.246130   -0.681729
     13          8           0       -1.290081   -0.870060    1.581161
     14          8           0       -2.053500    1.543340    1.108431
     15          9           0       -3.520091    0.394570   -1.323929
     16          9           0       -2.888691   -1.654600   -0.908849
     17          9           0       -4.228031   -0.623689    0.472911
     18          1           0        4.340950    1.566579    0.072371
     19          7           0        3.927649   -1.074871    0.023061
     20          8           0        5.088369   -0.716671    0.198801
     21          8           0        3.556629   -2.242221   -0.049989
 ---------------------------------------------------------------------
 Rotational constants (GHZ):      0.9633628      0.2108522      0.1916391
 Leave Link  202 at Tue Aug 20 14:48:04 2019, MaxMem=  524288000 cpu:       0.0
 (Enter /home/ubuntu/g09/l301.exe)
 Standard basis: Aug-CC-pVDZ (5D, 7F)
 Ernie: Thresh=  0.10000D-02 Tol=  0.10000D-05 Strict=F.
 Ernie:  42 primitive shells out of 481 were deleted.
 There are   431 symmetry adapted basis functions of A   symmetry.
 Integral buffers will be    131072 words long.
 Raffenetti 2 integral format.
 Two-electron integral symmetry is turned on.
   431 basis functions,   813 primitive gaussians,   465 cartesian basis functions
    68 alpha electrons       68 beta electrons
       nuclear repulsion energy      1428.7148378947 Hartrees.
 IExCor=  402 DFT=T Ex+Corr=B3LYP ExCW=0 ScaHFX=  0.200000
 ScaDFX=  0.800000  0.720000  1.000000  0.810000 ScalE2=  1.000000  1.000000
 IRadAn=      5 IRanWt=     -1 IRanGd=            0 ICorTp=0
 NAtoms=   21 NActive=   21 NUniq=   21 SFac= 1.00D+00 NAtFMM=   50 NAOKFM=F Big=F
 ------------------------------------------------------------------------------
 Polarizable Continuum Model (PCM)
 =================================
 Model                : C-PCM.
 Atomic radii         : UFF (Universal Force Field).
 Polarization charges : Total charges.
 Charge compensation  : None.
 Solution method      : Matrix inversion.
 Cavity type          : Scaled VdW (van der Waals Surface) (Alpha=1.100).
 Cavity algorithm     : GePol (No added spheres)
                        Default sphere list used, NSphG=   21.
                        Lebedev-Laikov grids with approx.  5.0 points / Ang**2.
                        Smoothing algorithm: Karplus/York (Gamma=1.0000).
                        Polarization charges: spherical gaussians, with
                                              point-specific exponents (IZeta= 3).
                        Self-potential: point-specific (ISelfS= 7).
                        Self-field    : sphere-specific E.n sum rule (ISelfD= 2).
 1st derivatives      : Analytical E(r).r(x)/FMM algorithm (CHGder, D1EAlg=3).
                        Cavity 1st derivative terms included.
 Solvent              : Water, Eps=  78.355300 Eps(inf)=   1.777849
 ------------------------------------------------------------------------------
 GePol: Number of generator spheres                  =      21
 GePol: Total number of spheres                      =      21
 GePol: Number of exposed spheres                    =      21 (100.00%)
 GePol: Number of points                             =    2138
 GePol: Average weight of points                     =       0.13
 GePol: Minimum weight of points                     =   0.33D-11
 GePol: Maximum weight of points                     =    0.20577
 GePol: Number of points with low weight             =      82
 GePol: Fraction of low-weight points (<1% of avg)   =       3.84%
 GePol: Cavity surface area                          =    276.619 Ang**2
 GePol: Cavity volume                                =    282.983 Ang**3
 Leave Link  301 at Tue Aug 20 14:48:04 2019, MaxMem=  524288000 cpu:       0.4
 (Enter /home/ubuntu/g09/l302.exe)
 NPDir=0 NMtPBC=     1 NCelOv=     1 NCel=       1 NClECP=     1 NCelD=      1
         NCelK=      1 NCelE2=     1 NClLst=     1 CellRange=     0.0.
 One-electron integrals computed using PRISM.
 NBasis=   431 RedAO= T  NBF=   431
 NBsUse=   431 1.00D-06 NBFU=   431
 Precomputing XC quadrature grid using
 IXCGrd= 2 IRadAn=           5 IRanWt=          -1 IRanGd=           0 AccXCQ= 0.00D+00.
 NRdTot=    1807 NPtTot=      489412 NUsed=      502347 NTot=      502379
 NSgBfM=   462   462   462   462   462 NAtAll=    21    21.
 Leave Link  302 at Tue Aug 20 14:48:05 2019, MaxMem=  524288000 cpu:       4.6
 (Enter /home/ubuntu/g09/l303.exe)
 DipDrv:  MaxL=1.
 Leave Link  303 at Tue Aug 20 14:48:05 2019, MaxMem=  524288000 cpu:       0.5
 (Enter /home/ubuntu/g09/l401.exe)
 Harris functional with IExCor=  402 diagonalized for initial guess.
 ExpMin= 2.97D-02 ExpMax= 1.11D+05 ExpMxC= 1.07D+03 IAcc=3 IRadAn=         5 AccDes= 0.00D+00
 HarFok:  IExCor=  402 AccDes= 0.00D+00 IRadAn=         5 IDoV= 1
 ScaDFX=  1.000000  1.000000  1.000000  1.000000
 FoFCou: FMM=F IPFlag=           0 FMFlag=      100000 FMFlg1=           0
         NFxFlg=           0 DoJE=T BraDBF=F KetDBF=T FulRan=T
         Omega=  0.000000  0.000000  1.000000  0.000000  0.000000 ICntrl=     500 IOpCl=  0
         NMat0=    1 NMatS0=    1 NMatT0=    0 NMatD0=    1 NMtDS0=    0 NMtDT0=    0
         I1Cent=           4 NGrid=           0.
 Petite list used in FoFCou.
 Harris En= -1397.70207028542    
 Initial guess orbital symmetries:
       Occupied  (A) (A) (A) (A) (A) (A) (A) (A) (A) (A) (A) (A)
                 (A) (A) (A) (A) (A) (A) (A) (A) (A) (A) (A) (A)
                 (A) (A) (A) (A) (A) (A) (A) (A) (A) (A) (A) (A)
                 (A) (A) (A) (A) (A) (A) (A) (A) (A) (A) (A) (A)
                 (A) (A) (A) (A) (A) (A) (A) (A) (A) (A) (A) (A)
                 (A) (A) (A) (A) (A) (A) (A) (A)
       Virtual   (A) (A) (A) (A) (A) (A) (A) (A) (A) (A) (A) (A)
                 (A) (A) (A) (A) (A) (A) (A) (A) (A) (A) (A) (A)
                 (A) (A) (A) (A) (A) (A) (A) (A) (A) (A) (A) (A)
                 (A) (A) (A) (A) (A) (A) (A) (A) (A) (A) (A) (A)
                 (A) (A) (A) (A) (A) (A) (A) (A) (A) (A) (A) (A)
                 (A) (A) (A) (A) (A) (A) (A) (A) (A) (A) (A) (A)
                 (A) (A) (A) (A) (A) (A) (A) (A) (A) (A) (A) (A)
                 (A) (A) (A) (A) (A) (A) (A) (A) (A) (A) (A) (A)
                 (A) (A) (A) (A) (A) (A) (A) (A) (A) (A) (A) (A)
                 (A) (A) (A) (A) (A) (A) (A) (A) (A) (A) (A) (A)
                 (A) (A) (A) (A) (A) (A) (A) (A) (A) (A) (A) (A)
                 (A) (A) (A) (A) (A) (A) (A) (A) (A) (A) (A) (A)
                 (A) (A) (A) (A) (A) (A) (A) (A) (A) (A) (A) (A)
                 (A) (A) (A) (A) (A) (A) (A) (A) (A) (A) (A) (A)
                 (A) (A) (A) (A) (A) (A) (A) (A) (A) (A) (A) (A)
                 (A) (A) (A) (A) (A) (A) (A) (A) (A) (A) (A) (A)
                 (A) (A) (A) (A) (A) (A) (A) (A) (A) (A) (A) (A)
                 (A) (A) (A) (A) (A) (A) (A) (A) (A) (A) (A) (A)
                 (A) (A) (A) (A) (A) (A) (A) (A) (A) (A) (A) (A)
                 (A) (A) (A) (A) (A) (A) (A) (A) (A) (A) (A) (A)
                 (A) (A) (A) (A) (A) (A) (A) (A) (A) (A) (A) (A)
                 (A) (A) (A) (A) (A) (A) (A) (A) (A) (A) (A) (A)
                 (A) (A) (A) (A) (A) (A) (A) (A) (A) (A) (A) (A)
                 (A) (A) (A) (A) (A) (A) (A) (A) (A) (A) (A) (A)
                 (A) (A) (A) (A) (A) (A) (A) (A) (A) (A) (A) (A)
                 (A) (A) (A) (A) (A) (A) (A) (A) (A) (A) (A) (A)
                 (A) (A) (A) (A) (A) (A) (A) (A) (A) (A) (A) (A)
                 (A) (A) (A) (A) (A) (A) (A) (A) (A) (A) (A) (A)
                 (A) (A) (A) (A) (A) (A) (A) (A) (A) (A) (A) (A)
                 (A) (A) (A) (A) (A) (A) (A) (A) (A) (A) (A) (A)
                 (A) (A) (A)
 The electronic state of the initial guess is 1-A.
 Leave Link  401 at Tue Aug 20 14:48:11 2019, MaxMem=  524288000 cpu:      38.4
 (Enter /home/ubuntu/g09/l502.exe)
 Closed shell SCF:
 Requested convergence on RMS density matrix=1.00D-08 within 128 cycles.
 Requested convergence on MAX density matrix=1.00D-06.
 Requested convergence on             energy=1.00D-06.
 No special actions if energy rises.
 Using DIIS extrapolation, IDIIS=  1040.
 Integral symmetry usage will be decided dynamically.
       502145 words used for storage of precomputed grid.
 IEnd=     1175659 IEndB=     1175659 NGot=   524288000 MDV=   523345672
 LenX=   523345672 LenY=   523128982
 Fock matrices will be formed incrementally for  20 cycles.

 Cycle   1  Pass 1  IDiag  1:
 FoFCou: FMM=F IPFlag=           0 FMFlag=      100000 FMFlg1=           0
         NFxFlg=           0 DoJE=F BraDBF=F KetDBF=F FulRan=T
         Omega=  0.000000  0.000000  1.000000  0.000000  0.000000 ICntrl=       0 IOpCl=  0
         NMat0=    1 NMatS0=    1 NMatT0=    0 NMatD0=    1 NMtDS0=    0 NMtDT0=    0
         I1Cent=           0 NGrid=           0.
 Symmetry not used in FoFCou.
 E= -1397.13932116027    
 DIIS: error= 2.20D-02 at cycle   1 NSaved=   1.
 NSaved= 1 IEnMin= 1 EnMin= -1397.13932116027     IErMin= 1 ErrMin= 2.20D-02
 ErrMax= 2.20D-02 EMaxC= 1.00D-01 BMatC= 7.14D-01 BMatP= 7.14D-01
 IDIUse=3 WtCom= 7.80D-01 WtEn= 2.20D-01
 Coeff-Com:  0.100D+01
 Coeff-En:   0.100D+01
 Coeff:      0.100D+01
 Gap=     0.278 Goal=   None    Shift=    0.000
 GapD=    0.278 DampG=1.000 DampE=0.500 DampFc=0.5000 IDamp=-1.
 Damping current iteration by 5.00D-01
 RMSDP=2.65D-02 MaxDP=1.36D+00              OVMax= 3.82D-01

 Cycle   2  Pass 1  IDiag  1:
 RMSU=  6.89D-03    CP:  8.79D-01
 E= -1397.11126095310     Delta-E=        0.028060207171 Rises=F Damp=T
 DIIS: error= 1.15D-02 at cycle   2 NSaved=   2.
 NSaved= 2 IEnMin= 1 EnMin= -1397.13932116027     IErMin= 2 ErrMin= 1.15D-02
 ErrMax= 1.15D-02 EMaxC= 1.00D-01 BMatC= 2.11D-01 BMatP= 7.14D-01
 IDIUse=3 WtCom= 8.85D-01 WtEn= 1.15D-01
 Coeff-Com:  0.336D+00 0.664D+00
 Coeff-En:   0.517D+00 0.483D+00
 Coeff:      0.357D+00 0.643D+00
 Gap=     0.224 Goal=   None    Shift=    0.000
 RMSDP=1.25D-02 MaxDP=8.49D-01 DE= 2.81D-02 OVMax= 2.76D-01

 Cycle   3  Pass 1  IDiag  1:
 RMSU=  3.86D-03    CP:  7.28D-01  9.95D-01
 E= -1397.67660906543     Delta-E=       -0.565348112340 Rises=F Damp=F
 DIIS: error= 4.54D-03 at cycle   3 NSaved=   3.
 NSaved= 3 IEnMin= 3 EnMin= -1397.67660906543     IErMin= 3 ErrMin= 4.54D-03
 ErrMax= 4.54D-03 EMaxC= 1.00D-01 BMatC= 4.36D-02 BMatP= 2.11D-01
 IDIUse=3 WtCom= 9.55D-01 WtEn= 4.54D-02
 Coeff-Com:  0.160D+00 0.360D+00 0.479D+00
 Coeff-En:   0.000D+00 0.000D+00 0.100D+01
 Coeff:      0.153D+00 0.344D+00 0.503D+00
 Gap=     0.180 Goal=   None    Shift=    0.000
 RMSDP=2.01D-03 MaxDP=1.15D-01 DE=-5.65D-01 OVMax= 5.59D-02

 Cycle   4  Pass 1  IDiag  1:
 RMSU=  1.00D-03    CP:  7.39D-01  9.33D-01  8.26D-01
 E= -1397.70624434749     Delta-E=       -0.029635282051 Rises=F Damp=F
 DIIS: error= 2.38D-03 at cycle   4 NSaved=   4.
 NSaved= 4 IEnMin= 4 EnMin= -1397.70624434749     IErMin= 4 ErrMin= 2.38D-03
 ErrMax= 2.38D-03 EMaxC= 1.00D-01 BMatC= 9.51D-03 BMatP= 4.36D-02
 IDIUse=3 WtCom= 9.76D-01 WtEn= 2.38D-02
 Coeff-Com:  0.187D-01 0.864D-01 0.312D+00 0.583D+00
 Coeff-En:   0.000D+00 0.000D+00 0.170D+00 0.830D+00
 Coeff:      0.182D-01 0.843D-01 0.308D+00 0.589D+00
 Gap=     0.173 Goal=   None    Shift=    0.000
 RMSDP=5.90D-04 MaxDP=4.02D-02 DE=-2.96D-02 OVMax= 2.02D-02

 Cycle   5  Pass 1  IDiag  1:
 RMSU=  3.82D-04    CP:  7.39D-01  9.26D-01  7.99D-01  8.83D-01
 E= -1397.71252330958     Delta-E=       -0.006278962098 Rises=F Damp=F
 DIIS: error= 7.25D-04 at cycle   5 NSaved=   5.
 NSaved= 5 IEnMin= 5 EnMin= -1397.71252330958     IErMin= 5 ErrMin= 7.25D-04
 ErrMax= 7.25D-04 EMaxC= 1.00D-01 BMatC= 9.13D-04 BMatP= 9.51D-03
 IDIUse=3 WtCom= 9.93D-01 WtEn= 7.25D-03
 Coeff-Com: -0.374D-02 0.181D-01 0.125D+00 0.333D+00 0.527D+00
 Coeff-En:   0.000D+00 0.000D+00 0.000D+00 0.461D-01 0.954D+00
 Coeff:     -0.371D-02 0.179D-01 0.124D+00 0.331D+00 0.530D+00
 Gap=     0.173 Goal=   None    Shift=    0.000
 RMSDP=3.62D-04 MaxDP=2.56D-02 DE=-6.28D-03 OVMax= 1.07D-02

 Cycle   6  Pass 1  IDiag  1:
 RMSU=  1.25D-04    CP:  7.36D-01  9.43D-01  8.18D-01  8.53D-01  6.86D-01
 E= -1397.71327907172     Delta-E=       -0.000755762141 Rises=F Damp=F
 DIIS: error= 2.24D-04 at cycle   6 NSaved=   6.
 NSaved= 6 IEnMin= 6 EnMin= -1397.71327907172     IErMin= 6 ErrMin= 2.24D-04
 ErrMax= 2.24D-04 EMaxC= 1.00D-01 BMatC= 9.44D-05 BMatP= 9.13D-04
 IDIUse=3 WtCom= 9.98D-01 WtEn= 2.24D-03
 Coeff-Com: -0.381D-02 0.267D-02 0.386D-01 0.122D+00 0.300D+00 0.540D+00
 Coeff-En:   0.000D+00 0.000D+00 0.000D+00 0.000D+00 0.420D-01 0.958D+00
 Coeff:     -0.380D-02 0.266D-02 0.385D-01 0.122D+00 0.300D+00 0.541D+00
 Gap=     0.173 Goal=   None    Shift=    0.000
 RMSDP=9.69D-05 MaxDP=1.03D-02 DE=-7.56D-04 OVMax= 3.43D-03

 Cycle   7  Pass 1  IDiag  1:
 RMSU=  4.64D-05    CP:  7.36D-01  9.42D-01  8.20D-01  8.52D-01  7.25D-01
                    CP:  6.48D-01
 E= -1397.71335213190     Delta-E=       -0.000073060177 Rises=F Damp=F
 DIIS: error= 1.38D-04 at cycle   7 NSaved=   7.
 NSaved= 7 IEnMin= 7 EnMin= -1397.71335213190     IErMin= 7 ErrMin= 1.38D-04
 ErrMax= 1.38D-04 EMaxC= 1.00D-01 BMatC= 1.55D-05 BMatP= 9.44D-05
 IDIUse=3 WtCom= 9.99D-01 WtEn= 1.38D-03
 Coeff-Com: -0.230D-02 0.305D-03 0.154D-01 0.539D-01 0.157D+00 0.355D+00
 Coeff-Com:  0.421D+00
 Coeff-En:   0.000D+00 0.000D+00 0.000D+00 0.000D+00 0.000D+00 0.675D-01
 Coeff-En:   0.933D+00
 Coeff:     -0.230D-02 0.304D-03 0.153D-01 0.538D-01 0.157D+00 0.354D+00
 Coeff:      0.421D+00
 Gap=     0.173 Goal=   None    Shift=    0.000
 RMSDP=2.61D-05 MaxDP=1.12D-03 DE=-7.31D-05 OVMax= 2.22D-03

 Cycle   8  Pass 1  IDiag  1:
 RMSU=  1.68D-05    CP:  7.36D-01  9.43D-01  8.20D-01  8.56D-01  7.26D-01
                    CP:  6.53D-01  8.80D-01
 E= -1397.71336270484     Delta-E=       -0.000010572944 Rises=F Damp=F
 DIIS: error= 5.71D-05 at cycle   8 NSaved=   8.
 NSaved= 8 IEnMin= 8 EnMin= -1397.71336270484     IErMin= 8 ErrMin= 5.71D-05
 ErrMax= 5.71D-05 EMaxC= 1.00D-01 BMatC= 2.69D-06 BMatP= 1.55D-05
 IDIUse=1 WtCom= 1.00D+00 WtEn= 0.00D+00
 Coeff-Com: -0.100D-02-0.310D-03 0.373D-02 0.158D-01 0.589D-01 0.155D+00
 Coeff-Com:  0.303D+00 0.465D+00
 Coeff:     -0.100D-02-0.310D-03 0.373D-02 0.158D-01 0.589D-01 0.155D+00
 Coeff:      0.303D+00 0.465D+00
 Gap=     0.173 Goal=   None    Shift=    0.000
 RMSDP=1.59D-05 MaxDP=7.60D-04 DE=-1.06D-05 OVMax= 8.46D-04

 Cycle   9  Pass 1  IDiag  1:
 RMSU=  6.67D-06    CP:  7.36D-01  9.42D-01  8.20D-01  8.55D-01  7.25D-01
                    CP:  6.72D-01  8.09D-01  5.53D-01
 E= -1397.71336465662     Delta-E=       -0.000001951773 Rises=F Damp=F
 DIIS: error= 1.42D-05 at cycle   9 NSaved=   9.
 NSaved= 9 IEnMin= 9 EnMin= -1397.71336465662     IErMin= 9 ErrMin= 1.42D-05
 ErrMax= 1.42D-05 EMaxC= 1.00D-01 BMatC= 2.48D-07 BMatP= 2.69D-06
 IDIUse=1 WtCom= 1.00D+00 WtEn= 0.00D+00
 Coeff-Com: -0.230D-03-0.188D-03-0.240D-03 0.795D-03 0.103D-01 0.352D-01
 Coeff-Com:  0.112D+00 0.283D+00 0.559D+00
 Coeff:     -0.230D-03-0.188D-03-0.240D-03 0.795D-03 0.103D-01 0.352D-01
 Coeff:      0.112D+00 0.283D+00 0.559D+00
 Gap=     0.173 Goal=   None    Shift=    0.000
 RMSDP=4.35D-06 MaxDP=2.44D-04 DE=-1.95D-06 OVMax= 1.87D-04

 Cycle  10  Pass 1  IDiag  1:
 RMSU=  2.12D-06    CP:  7.36D-01  9.42D-01  8.20D-01  8.55D-01  7.27D-01
                    CP:  6.68D-01  8.32D-01  5.87D-01  7.70D-01
 E= -1397.71336484964     Delta-E=       -0.000000193021 Rises=F Damp=F
 DIIS: error= 4.58D-06 at cycle  10 NSaved=  10.
 NSaved=10 IEnMin=10 EnMin= -1397.71336484964     IErMin=10 ErrMin= 4.58D-06
 ErrMax= 4.58D-06 EMaxC= 1.00D-01 BMatC= 2.71D-08 BMatP= 2.48D-07
 IDIUse=1 WtCom= 1.00D+00 WtEn= 0.00D+00
 Coeff-Com: -0.330D-04-0.837D-04-0.567D-03-0.120D-02-0.402D-03 0.311D-02
 Coeff-Com:  0.313D-01 0.114D+00 0.326D+00 0.528D+00
 Coeff:     -0.330D-04-0.837D-04-0.567D-03-0.120D-02-0.402D-03 0.311D-02
 Coeff:      0.313D-01 0.114D+00 0.326D+00 0.528D+00
 Gap=     0.173 Goal=   None    Shift=    0.000
 RMSDP=1.72D-06 MaxDP=8.69D-05 DE=-1.93D-07 OVMax= 6.06D-05

 Cycle  11  Pass 1  IDiag  1:
 RMSU=  6.31D-07    CP:  7.36D-01  9.42D-01  8.20D-01  8.56D-01  7.28D-01
                    CP:  6.68D-01  8.36D-01  6.11D-01  7.71D-01  7.11D-01
 E= -1397.71336487352     Delta-E=       -0.000000023880 Rises=F Damp=F
 DIIS: error= 9.81D-07 at cycle  11 NSaved=  11.
 NSaved=11 IEnMin=11 EnMin= -1397.71336487352     IErMin=11 ErrMin= 9.81D-07
 ErrMax= 9.81D-07 EMaxC= 1.00D-01 BMatC= 1.00D-09 BMatP= 2.71D-08
 IDIUse=1 WtCom= 1.00D+00 WtEn= 0.00D+00
 Coeff-Com:  0.464D-05-0.628D-05-0.189D-03-0.446D-03-0.800D-03-0.144D-02
 Coeff-Com:  0.453D-02 0.264D-01 0.890D-01 0.209D+00 0.674D+00
 Coeff:      0.464D-05-0.628D-05-0.189D-03-0.446D-03-0.800D-03-0.144D-02
 Coeff:      0.453D-02 0.264D-01 0.890D-01 0.209D+00 0.674D+00
 Gap=     0.173 Goal=   None    Shift=    0.000
 RMSDP=2.75D-07 MaxDP=9.91D-06 DE=-2.39D-08 OVMax= 9.95D-06

 Cycle  12  Pass 1  IDiag  1:
 RMSU=  1.39D-07    CP:  7.36D-01  9.42D-01  8.20D-01  8.56D-01  7.28D-01
                    CP:  6.68D-01  8.37D-01  6.12D-01  7.83D-01  7.39D-01
                    CP:  9.23D-01
 E= -1397.71336487425     Delta-E=       -0.000000000732 Rises=F Damp=F
 DIIS: error= 3.46D-07 at cycle  12 NSaved=  12.
 NSaved=12 IEnMin=12 EnMin= -1397.71336487425     IErMin=12 ErrMin= 3.46D-07
 ErrMax= 3.46D-07 EMaxC= 1.00D-01 BMatC= 2.80D-10 BMatP= 1.00D-09
 IDIUse=1 WtCom= 1.00D+00 WtEn= 0.00D+00
 Coeff-Com:  0.620D-05 0.439D-06-0.788D-04-0.190D-03-0.545D-03-0.144D-02
 Coeff-Com: -0.628D-03 0.445D-02 0.205D-01 0.671D-01 0.400D+00 0.511D+00
 Coeff:      0.620D-05 0.439D-06-0.788D-04-0.190D-03-0.545D-03-0.144D-02
 Coeff:     -0.628D-03 0.445D-02 0.205D-01 0.671D-01 0.400D+00 0.511D+00
 Gap=     0.173 Goal=   None    Shift=    0.000
 RMSDP=1.35D-07 MaxDP=1.23D-05 DE=-7.32D-10 OVMax= 3.57D-06

 Cycle  13  Pass 1  IDiag  1:
 RMSU=  6.69D-08    CP:  7.36D-01  9.42D-01  8.20D-01  8.56D-01  7.28D-01
                    CP:  6.68D-01  8.38D-01  6.12D-01  7.85D-01  7.48D-01
                    CP:  9.22D-01  7.76D-01
 E= -1397.71336487440     Delta-E=       -0.000000000144 Rises=F Damp=F
 DIIS: error= 1.60D-07 at cycle  13 NSaved=  13.
 NSaved=13 IEnMin=13 EnMin= -1397.71336487440     IErMin=13 ErrMin= 1.60D-07
 ErrMax= 1.60D-07 EMaxC= 1.00D-01 BMatC= 3.30D-11 BMatP= 2.80D-10
 IDIUse=1 WtCom= 1.00D+00 WtEn= 0.00D+00
 Coeff-Com:  0.339D-05 0.112D-05-0.214D-04-0.485D-04-0.226D-03-0.717D-03
 Coeff-Com: -0.112D-02-0.132D-02-0.159D-02 0.581D-02 0.140D+00 0.296D+00
 Coeff-Com:  0.564D+00
 Coeff:      0.339D-05 0.112D-05-0.214D-04-0.485D-04-0.226D-03-0.717D-03
 Coeff:     -0.112D-02-0.132D-02-0.159D-02 0.581D-02 0.140D+00 0.296D+00
 Coeff:      0.564D+00
 Gap=     0.173 Goal=   None    Shift=    0.000
 RMSDP=4.95D-08 MaxDP=2.71D-06 DE=-1.44D-10 OVMax= 1.66D-06

 Cycle  14  Pass 1  IDiag  1:
 RMSU=  2.50D-08    CP:  7.36D-01  9.42D-01  8.20D-01  8.56D-01  7.28D-01
                    CP:  6.68D-01  8.38D-01  6.13D-01  7.86D-01  7.48D-01
                    CP:  9.49D-01  8.46D-01  8.98D-01
 E= -1397.71336487445     Delta-E=       -0.000000000058 Rises=F Damp=F
 DIIS: error= 7.65D-08 at cycle  14 NSaved=  14.
 NSaved=14 IEnMin=14 EnMin= -1397.71336487445     IErMin=14 ErrMin= 7.65D-08
 ErrMax= 7.65D-08 EMaxC= 1.00D-01 BMatC= 6.21D-12 BMatP= 3.30D-11
 IDIUse=1 WtCom= 1.00D+00 WtEn= 0.00D+00
 Coeff-Com:  0.119D-05 0.563D-06-0.280D-05-0.258D-05-0.553D-04-0.228D-03
 Coeff-Com: -0.472D-03-0.100D-02-0.287D-02-0.439D-02 0.340D-01 0.108D+00
 Coeff-Com:  0.349D+00 0.519D+00
 Coeff:      0.119D-05 0.563D-06-0.280D-05-0.258D-05-0.553D-04-0.228D-03
 Coeff:     -0.472D-03-0.100D-02-0.287D-02-0.439D-02 0.340D-01 0.108D+00
 Coeff:      0.349D+00 0.519D+00
 Gap=     0.173 Goal=   None    Shift=    0.000
 RMSDP=1.66D-08 MaxDP=6.72D-07 DE=-5.78D-11 OVMax= 6.60D-07

 Cycle  15  Pass 1  IDiag  1:
 RMSU=  7.65D-09    CP:  7.36D-01  9.42D-01  8.20D-01  8.56D-01  7.28D-01
                    CP:  6.68D-01  8.38D-01  6.13D-01  7.86D-01  7.49D-01
                    CP:  9.53D-01  8.59D-01  9.08D-01  7.88D-01
 E= -1397.71336487439     Delta-E=        0.000000000065 Rises=F Damp=F
 DIIS: error= 1.85D-08 at cycle  15 NSaved=  15.
 NSaved=15 IEnMin=14 EnMin= -1397.71336487445     IErMin=15 ErrMin= 1.85D-08
 ErrMax= 1.85D-08 EMaxC= 1.00D-01 BMatC= 7.02D-13 BMatP= 6.21D-12
 IDIUse=1 WtCom= 1.00D+00 WtEn= 0.00D+00
 Coeff-Com:  0.335D-06 0.956D-07 0.121D-05 0.539D-05-0.306D-05-0.530D-04
 Coeff-Com: -0.161D-03-0.501D-03-0.178D-02-0.386D-02 0.269D-02 0.290D-01
 Coeff-Com:  0.144D+00 0.311D+00 0.520D+00
 Coeff:      0.335D-06 0.956D-07 0.121D-05 0.539D-05-0.306D-05-0.530D-04
 Coeff:     -0.161D-03-0.501D-03-0.178D-02-0.386D-02 0.269D-02 0.290D-01
 Coeff:      0.144D+00 0.311D+00 0.520D+00
 Gap=     0.173 Goal=   None    Shift=    0.000
 RMSDP=7.71D-09 MaxDP=5.22D-07 DE= 6.46D-11 OVMax= 3.30D-07

 Error on total polarization charges =  0.01349
 SCF Done:  E(RB3LYP) =  -1397.71336487     A.U. after   15 cycles
             Convg  =    0.7707D-08             -V/T =  2.0050
 KE= 1.390733969372D+03 PE=-6.151821157451D+03 EE= 1.934658985310D+03
 Leave Link  502 at Tue Aug 20 14:57:00 2019, MaxMem=  524288000 cpu:    3703.9
 (Enter /home/ubuntu/g09/l601.exe)
 Copying SCF densities to generalized density rwf, IOpCl= 0 IROHF=0.

 **********************************************************************

            Population analysis using the SCF density.

 **********************************************************************

 Orbital symmetries:
       Occupied  (A) (A) (A) (A) (A) (A) (A) (A) (A) (A) (A) (A)
                 (A) (A) (A) (A) (A) (A) (A) (A) (A) (A) (A) (A)
                 (A) (A) (A) (A) (A) (A) (A) (A) (A) (A) (A) (A)
                 (A) (A) (A) (A) (A) (A) (A) (A) (A) (A) (A) (A)
                 (A) (A) (A) (A) (A) (A) (A) (A) (A) (A) (A) (A)
                 (A) (A) (A) (A) (A) (A) (A) (A)
       Virtual   (A) (A) (A) (A) (A) (A) (A) (A) (A) (A) (A) (A)
                 (A) (A) (A) (A) (A) (A) (A) (A) (A) (A) (A) (A)
                 (A) (A) (A) (A) (A) (A) (A) (A) (A) (A) (A) (A)
                 (A) (A) (A) (A) (A) (A) (A) (A) (A) (A) (A) (A)
                 (A) (A) (A) (A) (A) (A) (A) (A) (A) (A) (A) (A)
                 (A) (A) (A) (A) (A) (A) (A) (A) (A) (A) (A) (A)
                 (A) (A) (A) (A) (A) (A) (A) (A) (A) (A) (A) (A)
                 (A) (A) (A) (A) (A) (A) (A) (A) (A) (A) (A) (A)
                 (A) (A) (A) (A) (A) (A) (A) (A) (A) (A) (A) (A)
                 (A) (A) (A) (A) (A) (A) (A) (A) (A) (A) (A) (A)
                 (A) (A) (A) (A) (A) (A) (A) (A) (A) (A) (A) (A)
                 (A) (A) (A) (A) (A) (A) (A) (A) (A) (A) (A) (A)
                 (A) (A) (A) (A) (A) (A) (A) (A) (A) (A) (A) (A)
                 (A) (A) (A) (A) (A) (A) (A) (A) (A) (A) (A) (A)
                 (A) (A) (A) (A) (A) (A) (A) (A) (A) (A) (A) (A)
                 (A) (A) (A) (A) (A) (A) (A) (A) (A) (A) (A) (A)
                 (A) (A) (A) (A) (A) (A) (A) (A) (A) (A) (A) (A)
                 (A) (A) (A) (A) (A) (A) (A) (A) (A) (A) (A) (A)
                 (A) (A) (A) (A) (A) (A) (A) (A) (A) (A) (A) (A)
                 (A) (A) (A) (A) (A) (A) (A) (A) (A) (A) (A) (A)
                 (A) (A) (A) (A) (A) (A) (A) (A) (A) (A) (A) (A)
                 (A) (A) (A) (A) (A) (A) (A) (A) (A) (A) (A) (A)
                 (A) (A) (A) (A) (A) (A) (A) (A) (A) (A) (A) (A)
                 (A) (A) (A) (A) (A) (A) (A) (A) (A) (A) (A) (A)
                 (A) (A) (A) (A) (A) (A) (A) (A) (A) (A) (A) (A)
                 (A) (A) (A) (A) (A) (A) (A) (A) (A) (A) (A) (A)
                 (A) (A) (A) (A) (A) (A) (A) (A) (A) (A) (A) (A)
                 (A) (A) (A) (A) (A) (A) (A) (A) (A) (A) (A) (A)
                 (A) (A) (A) (A) (A) (A) (A) (A) (A) (A) (A) (A)
                 (A) (A) (A) (A) (A) (A) (A) (A) (A) (A) (A) (A)
                 (A) (A) (A)
 The electronic state is 1-A.
 Alpha  occ. eigenvalues --  -89.18058 -24.79628 -24.79620 -24.79604 -19.24542
 Alpha  occ. eigenvalues --  -19.20688 -19.20672 -19.20661 -19.20625 -14.59367
 Alpha  occ. eigenvalues --  -10.50641 -10.29268 -10.27257 -10.23788 -10.23317
 Alpha  occ. eigenvalues --  -10.23268 -10.22794  -8.20942  -6.17364  -6.17202
 Alpha  occ. eigenvalues --   -6.17118  -1.37599  -1.28985  -1.28934  -1.25684
 Alpha  occ. eigenvalues --   -1.18263  -1.09326  -1.08486  -1.06256  -0.91096
 Alpha  occ. eigenvalues --   -0.83185  -0.80808  -0.77934  -0.72914  -0.71706
 Alpha  occ. eigenvalues --   -0.65875  -0.65113  -0.64648  -0.63573  -0.61087
 Alpha  occ. eigenvalues --   -0.58747  -0.55921  -0.55553  -0.54484  -0.53091
 Alpha  occ. eigenvalues --   -0.52633  -0.52067  -0.51676  -0.51302  -0.50329
 Alpha  occ. eigenvalues --   -0.48880  -0.48640  -0.47441  -0.46584  -0.46374
 Alpha  occ. eigenvalues --   -0.42131  -0.41772  -0.40836  -0.39372  -0.39014
 Alpha  occ. eigenvalues --   -0.37429  -0.36447  -0.34688  -0.34307  -0.33744
 Alpha  occ. eigenvalues --   -0.32303  -0.30060  -0.29134
 Alpha virt. eigenvalues --   -0.11818  -0.06305  -0.03749  -0.02565  -0.02063
 Alpha virt. eigenvalues --   -0.00680   0.00292   0.00718   0.01857   0.02330
 Alpha virt. eigenvalues --    0.02730   0.03658   0.04120   0.04559   0.05128
 Alpha virt. eigenvalues --    0.05587   0.06343   0.07002   0.07212   0.07944
 Alpha virt. eigenvalues --    0.08434   0.08961   0.09214   0.09456   0.09600
 Alpha virt. eigenvalues --    0.10157   0.10225   0.10931   0.11154   0.11761
 Alpha virt. eigenvalues --    0.11772   0.12267   0.12568   0.13248   0.13506
 Alpha virt. eigenvalues --    0.14153   0.14671   0.14937   0.15413   0.15744
 Alpha virt. eigenvalues --    0.16194   0.16500   0.17395   0.17644   0.18189
 Alpha virt. eigenvalues --    0.18972   0.19249   0.19632   0.19912   0.20113
 Alpha virt. eigenvalues --    0.20983   0.21301   0.21695   0.22021   0.22240
 Alpha virt. eigenvalues --    0.22712   0.23282   0.23694   0.24175   0.24388
 Alpha virt. eigenvalues --    0.24847   0.25037   0.25256   0.25847   0.26219
 Alpha virt. eigenvalues --    0.26854   0.27117   0.27624   0.27869   0.28126
 Alpha virt. eigenvalues --    0.28481   0.28762   0.29190   0.29588   0.29809
 Alpha virt. eigenvalues --    0.30411   0.30543   0.30980   0.31413   0.31676
 Alpha virt. eigenvalues --    0.32086   0.32564   0.33052   0.33615   0.33995
 Alpha virt. eigenvalues --    0.34793   0.34951   0.35120   0.35442   0.35829
 Alpha virt. eigenvalues --    0.36402   0.38266   0.38990   0.39648   0.40109
 Alpha virt. eigenvalues --    0.40823   0.41331   0.41976   0.42260   0.43400
 Alpha virt. eigenvalues --    0.44020   0.44450   0.44774   0.45389   0.46721
 Alpha virt. eigenvalues --    0.47169   0.48928   0.49213   0.49767   0.51474
 Alpha virt. eigenvalues --    0.52108   0.52180   0.53597   0.54187   0.54679
 Alpha virt. eigenvalues --    0.54990   0.56486   0.57365   0.57729   0.58182
 Alpha virt. eigenvalues --    0.58537   0.60004   0.60359   0.61350   0.61870
 Alpha virt. eigenvalues --    0.62338   0.62995   0.63560   0.64080   0.64608
 Alpha virt. eigenvalues --    0.64700   0.65552   0.66653   0.66971   0.68274
 Alpha virt. eigenvalues --    0.69220   0.70610   0.71958   0.72358   0.72974
 Alpha virt. eigenvalues --    0.73316   0.73671   0.74652   0.74887   0.75330
 Alpha virt. eigenvalues --    0.76599   0.77015   0.77805   0.80226   0.80716
 Alpha virt. eigenvalues --    0.81568   0.81957   0.82501   0.82999   0.83731
 Alpha virt. eigenvalues --    0.84839   0.85307   0.86033   0.87674   0.88238
 Alpha virt. eigenvalues --    0.90097   0.91267   0.91762   0.93129   0.93989
 Alpha virt. eigenvalues --    0.94579   0.96089   0.96754   0.97691   0.98537
 Alpha virt. eigenvalues --    0.98865   1.02408   1.02769   1.03304   1.03542
 Alpha virt. eigenvalues --    1.04861   1.05123   1.05538   1.07205   1.07636
 Alpha virt. eigenvalues --    1.09244   1.09648   1.11192   1.11435   1.12459
 Alpha virt. eigenvalues --    1.13346   1.14759   1.16042   1.17359   1.17424
 Alpha virt. eigenvalues --    1.18093   1.19130   1.19666   1.20838   1.22155
 Alpha virt. eigenvalues --    1.22968   1.23523   1.24543   1.25473   1.26164
 Alpha virt. eigenvalues --    1.27109   1.27312   1.28410   1.29308   1.29424
 Alpha virt. eigenvalues --    1.30688   1.31456   1.32015   1.32380   1.33680
 Alpha virt. eigenvalues --    1.34495   1.35108   1.35889   1.36692   1.37936
 Alpha virt. eigenvalues --    1.38939   1.39486   1.41793   1.41998   1.42678
 Alpha virt. eigenvalues --    1.43060   1.43299   1.43631   1.44301   1.44566
 Alpha virt. eigenvalues --    1.46144   1.46594   1.47452   1.47876   1.48430
 Alpha virt. eigenvalues --    1.49187   1.50273   1.52049   1.53233   1.53476
 Alpha virt. eigenvalues --    1.56751   1.58657   1.58850   1.60508   1.61414
 Alpha virt. eigenvalues --    1.62531   1.64075   1.64521   1.65371   1.65755
 Alpha virt. eigenvalues --    1.66898   1.68272   1.69325   1.70636   1.71044
 Alpha virt. eigenvalues --    1.71713   1.72972   1.73671   1.74712   1.75493
 Alpha virt. eigenvalues --    1.75802   1.77628   1.78643   1.80147   1.81807
 Alpha virt. eigenvalues --    1.84923   1.86359   1.87442   1.87922   1.89971
 Alpha virt. eigenvalues --    1.92478   1.93068   1.93685   1.94888   1.97176
 Alpha virt. eigenvalues --    1.98103   1.98725   2.00828   2.01955   2.04012
 Alpha virt. eigenvalues --    2.04349   2.04754   2.07138   2.07914   2.08912
 Alpha virt. eigenvalues --    2.10658   2.14115   2.15655   2.17194   2.18012
 Alpha virt. eigenvalues --    2.19753   2.20856   2.23051   2.26156   2.28085
 Alpha virt. eigenvalues --    2.30465   2.32179   2.33233   2.37161   2.38198
 Alpha virt. eigenvalues --    2.38737   2.39726   2.43940   2.47648   2.48099
 Alpha virt. eigenvalues --    2.48569   2.52010   2.62702   2.63485   2.69653
 Alpha virt. eigenvalues --    2.71356   2.77947   2.80115   2.87217   2.90329
 Alpha virt. eigenvalues --    2.93029   2.99678   3.02226   3.10087   3.17663
 Alpha virt. eigenvalues --    3.20835   3.26339   3.26663   3.27019   3.27075
 Alpha virt. eigenvalues --    3.28038   3.29542   3.31026   3.33069   3.33654
 Alpha virt. eigenvalues --    3.34058   3.35503   3.37159   3.37228   3.38308
 Alpha virt. eigenvalues --    3.38782   3.39637   3.42445   3.42961   3.45912
 Alpha virt. eigenvalues --    3.47002   3.49999   3.50449   3.55412   3.56817
 Alpha virt. eigenvalues --    3.58183   3.59157   3.63864   3.77942   3.80980
 Alpha virt. eigenvalues --    3.83432   4.09451   4.42872   4.44455   4.44704
 Alpha virt. eigenvalues --    4.45868   4.48541   4.48651   4.49390   4.53752
 Alpha virt. eigenvalues --    4.54079   4.55989   4.60478   4.62358   4.62491
 Alpha virt. eigenvalues --    4.69585   4.77646   4.78778
          Condensed to atoms (all electrons):
              1          2          3          4          5          6
     1  C   13.749912  -4.733151   3.063228  -3.840394   3.239527  -5.059703
     2  C   -4.733151  14.420315  -5.895618   2.884972  -3.485421   2.957801
     3  C    3.063228  -5.895618  15.154065  -5.108014   1.998155  -3.363919
     4  C   -3.840394   2.884972  -5.108014  14.525535  -4.513507   1.861929
     5  C    3.239527  -3.485421   1.998155  -4.513507  13.073994  -5.339206
     6  C   -5.059703   2.957801  -3.363919   1.861929  -5.339206  14.999365
     7  H   -2.089774   0.986287  -0.428022   0.306500  -0.487330   1.123029
     8  H    0.727621  -2.411882   1.106744  -0.092127   0.044275  -0.246354
     9  H    0.046600  -0.040636   0.634910  -1.720588   0.274973  -0.104861
    10  S   -0.006083  -0.015917  -0.090523   0.079251  -0.012035   0.015487
    11  C    0.003446  -0.093680   0.187497  -0.051672   0.033471  -0.013635
    12  O   -0.193515   0.565725  -1.248679   0.421664  -0.081193   0.096673
    13  O    0.013815   0.012639   0.124979  -0.069843  -0.016772  -0.017079
    14  O   -0.028756  -0.056832   0.161369  -0.028039   0.017887  -0.013484
    15  F    0.003840   0.024022  -0.020543  -0.006244  -0.003398   0.000111
    16  F   -0.002173  -0.006673  -0.003822   0.014778  -0.001073   0.000771
    17  F    0.001271   0.009328  -0.012977  -0.002274  -0.001786  -0.000164
    18  H    0.853375  -0.221022   0.073273  -0.117013   1.094095  -2.371857
    19  N   -0.496181   0.351836  -0.393384   0.587364  -1.280556   0.580903
    20  O   -0.048944  -0.049361   0.033103  -0.143327   0.354472   0.009146
    21  O   -0.005587  -0.029007  -0.010024  -0.007833   0.244004  -0.057130
              7          8          9         10         11         12
     1  C   -2.089774   0.727621   0.046600  -0.006083   0.003446  -0.193515
     2  C    0.986287  -2.411882  -0.040636  -0.015917  -0.093680   0.565725
     3  C   -0.428022   1.106744   0.634910  -0.090523   0.187497  -1.248679
     4  C    0.306500  -0.092127  -1.720588   0.079251  -0.051672   0.421664
     5  C   -0.487330   0.044275   0.274973  -0.012035   0.033471  -0.081193
     6  C    1.123029  -0.246354  -0.104861   0.015487  -0.013635   0.096673
     7  H    2.684507  -0.202105   0.009686  -0.000603  -0.000260  -0.003987
     8  H   -0.202105   3.096614  -0.012944  -0.004888  -0.002777  -0.173638
     9  H    0.009686  -0.012944   3.023243   0.006931  -0.007236  -0.178193
    10  S   -0.000603  -0.004888   0.006931  14.434282   0.100567  -0.090425
    11  C   -0.000260  -0.002777  -0.007236   0.100567   4.618171  -0.117217
    12  O   -0.003987  -0.173638  -0.178193  -0.090425  -0.117217   9.816240
    13  O    0.000298   0.000022   0.007033  -0.252563   0.032665   0.044682
    14  O   -0.000806   0.005766   0.001374  -0.266797   0.033106   0.043240
    15  F   -0.000031   0.002617   0.000607  -0.052369   0.057454   0.006092
    16  F   -0.000035   0.000259   0.003057  -0.048551   0.056076   0.004590
    17  F    0.000007   0.000247   0.000513  -0.051595   0.030605   0.026691
    18  H   -0.202085  -0.012046  -0.014778   0.001636  -0.000083   0.004328
    19  N    0.022190   0.002969  -0.041397   0.003743  -0.001142  -0.011728
    20  O   -0.000702  -0.000184  -0.008399  -0.000485   0.000005   0.000030
    21  O   -0.000217  -0.000336  -0.032957  -0.001012  -0.000017   0.006057
             13         14         15         16         17         18
     1  C    0.013815  -0.028756   0.003840  -0.002173   0.001271   0.853375
     2  C    0.012639  -0.056832   0.024022  -0.006673   0.009328  -0.221022
     3  C    0.124979   0.161369  -0.020543  -0.003822  -0.012977   0.073273
     4  C   -0.069843  -0.028039  -0.006244   0.014778  -0.002274  -0.117013
     5  C   -0.016772   0.017887  -0.003398  -0.001073  -0.001786   1.094095
     6  C   -0.017079  -0.013484   0.000111   0.000771  -0.000164  -2.371857
     7  H    0.000298  -0.000806  -0.000031  -0.000035   0.000007  -0.202085
     8  H    0.000022   0.005766   0.002617   0.000259   0.000247  -0.012046
     9  H    0.007033   0.001374   0.000607   0.003057   0.000513  -0.014778
    10  S   -0.252563  -0.266797  -0.052369  -0.048551  -0.051595   0.001636
    11  C    0.032665   0.033106   0.057454   0.056076   0.030605  -0.000083
    12  O    0.044682   0.043240   0.006092   0.004590   0.026691   0.004328
    13  O    8.905020   0.067137   0.010849   0.014936   0.015521  -0.000347
    14  O    0.067137   8.922299   0.014050   0.010441   0.015432   0.000177
    15  F    0.010849   0.014050   9.453826  -0.024527  -0.048651   0.000000
    16  F    0.014936   0.010441  -0.024527   9.450581  -0.048052   0.000021
    17  F    0.015521   0.015432  -0.048651  -0.048052   9.453912  -0.000006
    18  H   -0.000347   0.000177   0.000000   0.000021  -0.000006   2.925881
    19  N   -0.000586  -0.000358  -0.000002   0.000020   0.000007  -0.156314
    20  O   -0.000098   0.000007   0.000000  -0.000002   0.000000  -0.029014
    21  O    0.000096   0.000019   0.000010  -0.000038   0.000000  -0.010533
             19         20         21
     1  C   -0.496181  -0.048944  -0.005587
     2  C    0.351836  -0.049361  -0.029007
     3  C   -0.393384   0.033103  -0.010024
     4  C    0.587364  -0.143327  -0.007833
     5  C   -1.280556   0.354472   0.244004
     6  C    0.580903   0.009146  -0.057130
     7  H    0.022190  -0.000702  -0.000217
     8  H    0.002969  -0.000184  -0.000336
     9  H   -0.041397  -0.008399  -0.032957
    10  S    0.003743  -0.000485  -0.001012
    11  C   -0.001142   0.000005  -0.000017
    12  O   -0.011728   0.000030   0.006057
    13  O   -0.000586  -0.000098   0.000096
    14  O   -0.000358   0.000007   0.000019
    15  F   -0.000002   0.000000   0.000010
    16  F    0.000020  -0.000002  -0.000038
    17  F    0.000007   0.000000   0.000000
    18  H   -0.156314  -0.029014  -0.010533
    19  N    8.376330  -0.681123  -0.622827
    20  O   -0.681123   9.331868  -0.028373
    21  O   -0.622827  -0.028373   9.276083
 Mulliken atomic charges:
              1
     1  C    0.801626
     2  C    0.826276
     3  C    0.038202
     4  C    1.018880
     5  C    0.847424
     6  C    0.942179
     7  H   -0.716548
     8  H   -0.827853
     9  H   -0.846940
    10  S    2.251950
    11  C    1.134656
    12  O   -0.937437
    13  O   -0.892405
    14  O   -0.897232
    15  F   -0.417715
    16  F   -0.420585
    17  F   -0.388028
    18  H   -0.817688
    19  N    0.760235
    20  O   -0.738620
    21  O   -0.720378
 Sum of Mulliken atomic charges =   0.00000
 Mulliken charges with hydrogens summed into heavy atoms:
              1
     1  C    0.085079
     2  C   -0.001577
     3  C    0.038202
     4  C    0.171941
     5  C    0.847424
     6  C    0.124491
    10  S    2.251950
    11  C    1.134656
    12  O   -0.937437
    13  O   -0.892405
    14  O   -0.897232
    15  F   -0.417715
    16  F   -0.420585
    17  F   -0.388028
    19  N    0.760235
    20  O   -0.738620
    21  O   -0.720378
 Sum of Mulliken charges with hydrogens summed into heavy atoms =   0.00000
 Electronic spatial extent (au):  <R**2>=           5216.5588
 Charge=              0.0000 electrons
 Dipole moment (field-independent basis, Debye):
    X=             -1.7167    Y=              4.3267    Z=             -2.5648  Tot=              5.3146
 Quadrupole moment (field-independent basis, Debye-Ang):
   XX=           -116.6612   YY=           -100.7075   ZZ=           -105.5979
   XY=             19.3706   XZ=              1.8532   YZ=             -0.5387
 Traceless Quadrupole moment (field-independent basis, Debye-Ang):
   XX=             -9.0057   YY=              6.9480   ZZ=              2.0576
   XY=             19.3706   XZ=              1.8532   YZ=             -0.5387
 Octapole moment (field-independent basis, Debye-Ang**2):
  XXX=           -187.1881  YYY=             19.4486  ZZZ=             -9.9645  XYY=            -18.6901
  XXY=             52.4927  XXZ=            -14.8558  XZZ=            -14.6869  YZZ=            -10.2407
  YYZ=            -10.3544  XYZ=              2.7580
 Hexadecapole moment (field-independent basis, Debye-Ang**3):
 XXXX=          -5445.0272 YYYY=           -928.9027 ZZZZ=           -385.0619 XXXY=            320.9582
 XXXZ=              7.6577 YYYX=            121.9353 YYYZ=             -8.1684 ZZZX=             38.9772
 ZZZY=              9.7047 XXYY=          -1025.3869 XXZZ=           -868.0488 YYZZ=           -237.5415
 XXYZ=              6.5842 YYXZ=             18.6920 ZZXY=            -10.2741
 N-N= 1.428714837895D+03 E-N=-6.151821147592D+03  KE= 1.390733969372D+03
 No NMR shielding tensors so no spin-rotation constants.
 Leave Link  601 at Tue Aug 20 14:57:01 2019, MaxMem=  524288000 cpu:       2.6
 (Enter /home/ubuntu/g09/l701.exe)
 Compute integral first derivatives.
 ... and contract with generalized density number  0.
 D1PCM: C-PCM CHGder 1st derivatives, ID1Alg=3 FixD1E=F DoIter=F DoCFld=F I1PDM=0.
 GePol: Maximum number of non-zero 1st derivatives   =     215
 Leave Link  701 at Tue Aug 20 14:57:06 2019, MaxMem=  524288000 cpu:      34.6
 (Enter /home/ubuntu/g09/l702.exe)
 L702 exits ... SP integral derivatives will be done elsewhere.
 Leave Link  702 at Tue Aug 20 14:57:06 2019, MaxMem=  524288000 cpu:       0.1
 (Enter /home/ubuntu/g09/l703.exe)
 Compute integral first derivatives, UseDBF=F ICtDFT=           0.
 Integral derivatives from FoFDir, PRISM(SPDF).
 Calling FoFJK, ICntrl=      2127 FMM=F ISym2X=0 I1Cent= 0 IOpClX= 0 NMat=1 NMatS=1 NMatT=0.
 FoFCou: FMM=F IPFlag=           0 FMFlag=      100000 FMFlg1=         800
         NFxFlg=           0 DoJE=F BraDBF=F KetDBF=F FulRan=T
         Omega=  0.000000  0.000000  1.000000  0.000000  0.000000 ICntrl=    2127 IOpCl=  0
         NMat0=    1 NMatS0=    1 NMatT0=    0 NMatD0=    1 NMtDS0=    0 NMtDT0=    0
         I1Cent=           0 NGrid=           0.
 Symmetry not used in FoFCou.
 Leave Link  703 at Tue Aug 20 14:58:39 2019, MaxMem=  524288000 cpu:     651.0
 (Enter /home/ubuntu/g09/l716.exe)
 Dipole        =-6.75385188D-01 1.70224448D+00-1.00906622D+00
 ***** Axes restored to original set *****
 -------------------------------------------------------------------
 Center     Atomic                   Forces (Hartrees/Bohr)
 Number     Number              X              Y              Z
 -------------------------------------------------------------------
      1        6           0.000638931    0.000688576    0.000132484
      2        6          -0.000374021   -0.000358527    0.000078116
      3        6           0.002669794    0.000016609    0.000213998
      4        6          -0.000898441   -0.001186361   -0.000042474
      5        6           0.001017306   -0.000905198    0.000150168
      6        6           0.000673134   -0.000121803    0.000104312
      7        1          -0.000070129   -0.000376337   -0.000058739
      8        1           0.000569213    0.000315716   -0.000333616
      9        1          -0.000486114    0.000371295   -0.000418896
     10       16           0.001517551   -0.000116207   -0.008047616
     11        6          -0.002570681   -0.000924490   -0.001594585
     12        8          -0.002774476   -0.000518288    0.002670069
     13        8           0.000468278   -0.000856787    0.003102315
     14        8          -0.000391757    0.001022830    0.002438622
     15        9           0.000923509   -0.000248442    0.001069964
     16        9           0.000527494    0.000780331    0.000681494
     17        9           0.000599032    0.000163997    0.000131782
     18        1          -0.000531477    0.001026728   -0.000139032
     19        7          -0.006914129    0.007701931   -0.001015570
     20        8           0.002917884   -0.002856824    0.000429803
     21        8           0.002489103   -0.003618750    0.000447400
 -------------------------------------------------------------------
 Cartesian Forces:  Max     0.008047616 RMS     0.002084482
 Leave Link  716 at Tue Aug 20 14:58:39 2019, MaxMem=  524288000 cpu:       0.1
 (Enter /home/ubuntu/g09/l103.exe)

 GradGradGradGradGradGradGradGradGradGradGradGradGradGradGradGradGradGrad
 Berny optimization.
 Internal  Forces:  Max     0.005499801 RMS     0.001068033
 Search for a local minimum.
 Step number   1 out of a maximum of  107
 All quantities printed in internal units (Hartrees-Bohrs-Radians)
 RMS Force = .10680D-02 SwitMx=.10000D-02 MixMth= 1
 Mixed Optimization -- RFO/linear search
 Second derivative matrix not updated -- first step.
 ITU=  0
     Eigenvalues ---    0.00230   0.00635   0.00635   0.01517   0.01611
     Eigenvalues ---    0.01710   0.02078   0.02124   0.02129   0.02129
     Eigenvalues ---    0.02143   0.02151   0.02170   0.02181   0.08326
     Eigenvalues ---    0.08743   0.09282   0.11169   0.14934   0.16000
     Eigenvalues ---    0.16000   0.16000   0.16000   0.19145   0.19245
     Eigenvalues ---    0.22000   0.23497   0.23508   0.24955   0.25000
     Eigenvalues ---    0.25000   0.25000   0.25000   0.25000   0.25000
     Eigenvalues ---    0.25000   0.25000   0.34585   0.34903   0.35003
     Eigenvalues ---    0.35187   0.35258   0.37976   0.42139   0.42330
     Eigenvalues ---    0.44623   0.46106   0.46310   0.46398   0.46800
     Eigenvalues ---    0.58478   0.59140   0.59301   0.86488   0.86832
     Eigenvalues ---    0.92187   0.92319
 RFO step:  Lambda=-4.51288240D-04 EMin= 2.30000000D-03
 Linear search not attempted -- first point.
 Iteration  1 RMS(Cart)=  0.01977863 RMS(Int)=  0.00017575
 Iteration  2 RMS(Cart)=  0.00020572 RMS(Int)=  0.00002369
 Iteration  3 RMS(Cart)=  0.00000002 RMS(Int)=  0.00002369
 Variable       Old X    -DE/DX   Delta X   Delta X   Delta X     New X
                                 (Linear)    (Quad)   (Total)
    R1        2.64154   0.00000   0.00000  -0.00007  -0.00007   2.64147
    R2        2.63908  -0.00058   0.00000  -0.00126  -0.00126   2.63783
    R3        2.05832  -0.00038   0.00000  -0.00110  -0.00110   2.05723
    R4        2.63895   0.00040   0.00000   0.00079   0.00079   2.63974
    R5        2.05670  -0.00015   0.00000  -0.00043  -0.00043   2.05627
    R6        2.62992  -0.00094   0.00000  -0.00200  -0.00200   2.62792
    R7        2.65716   0.00172   0.00000   0.00385   0.00385   2.66100
    R8        2.63546   0.00063   0.00000   0.00142   0.00142   2.63688
    R9        2.05258  -0.00022   0.00000  -0.00063  -0.00063   2.05195
   R10        2.63650   0.00097   0.00000   0.00217   0.00217   2.63867
   R11        2.79654  -0.00193   0.00000  -0.00557  -0.00557   2.79096
   R12        2.05373  -0.00030   0.00000  -0.00084  -0.00084   2.05289
   R13        3.60288   0.00034   0.00000   0.00175   0.00175   3.60463
   R14        3.18100  -0.00244   0.00000  -0.00641  -0.00641   3.17459
   R15        2.78128   0.00271   0.00000   0.00312   0.00312   2.78440
   R16        2.78295   0.00179   0.00000   0.00207   0.00207   2.78502
   R17        2.51627  -0.00114   0.00000  -0.00193  -0.00193   2.51435
   R18        2.51498  -0.00084   0.00000  -0.00142  -0.00142   2.51356
   R19        2.52165  -0.00040   0.00000  -0.00068  -0.00068   2.52097
   R20        2.31941   0.00198   0.00000   0.00215   0.00215   2.32156
   R21        2.31882   0.00267   0.00000   0.00289   0.00289   2.32171
    A1        2.10384  -0.00015   0.00000  -0.00076  -0.00075   2.10309
    A2        2.08923   0.00011   0.00000   0.00057   0.00056   2.08980
    A3        2.09010   0.00005   0.00000   0.00018   0.00018   2.09028
    A4        2.07562   0.00022   0.00000   0.00076   0.00075   2.07637
    A5        2.11873  -0.00072   0.00000  -0.00419  -0.00420   2.11453
    A6        2.08883   0.00050   0.00000   0.00342   0.00341   2.09224
    A7        2.13211   0.00040   0.00000   0.00143   0.00143   2.13354
    A8        2.08241   0.00052   0.00000   0.00204   0.00203   2.08444
    A9        2.06702  -0.00093   0.00000  -0.00377  -0.00378   2.06324
   A10        2.04657  -0.00060   0.00000  -0.00248  -0.00248   2.04409
   A11        2.12337  -0.00033   0.00000  -0.00272  -0.00272   2.12065
   A12        2.11324   0.00093   0.00000   0.00519   0.00519   2.11843
   A13        2.13856   0.00034   0.00000   0.00171   0.00171   2.14027
   A14        2.06678  -0.00059   0.00000  -0.00254  -0.00254   2.06425
   A15        2.07784   0.00025   0.00000   0.00083   0.00083   2.07867
   A16        2.06964  -0.00020   0.00000  -0.00064  -0.00064   2.06900
   A17        2.12553  -0.00105   0.00000  -0.00685  -0.00685   2.11868
   A18        2.08801   0.00125   0.00000   0.00748   0.00748   2.09549
   A19        1.62991  -0.00003   0.00000   0.00466   0.00464   1.63454
   A20        1.90142   0.00056   0.00000   0.00095   0.00093   1.90235
   A21        1.89639   0.00060   0.00000   0.00149   0.00146   1.89785
   A22        1.92198   0.00044   0.00000   0.00497   0.00496   1.92695
   A23        1.91928   0.00079   0.00000   0.00803   0.00801   1.92729
   A24        2.12894  -0.00186   0.00000  -0.01506  -0.01507   2.11388
   A25        1.91740  -0.00122   0.00000  -0.00507  -0.00508   1.91232
   A26        1.91751  -0.00110   0.00000  -0.00459  -0.00460   1.91291
   A27        1.86538  -0.00044   0.00000  -0.00136  -0.00137   1.86401
   A28        1.92395   0.00107   0.00000   0.00356   0.00354   1.92749
   A29        1.91914   0.00085   0.00000   0.00383   0.00383   1.92297
   A30        1.91964   0.00078   0.00000   0.00345   0.00344   1.92308
   A31        2.02969   0.00177   0.00000   0.00708   0.00708   2.03677
   A32        2.05108   0.00285   0.00000   0.01137   0.01125   2.06233
   A33        2.05224   0.00265   0.00000   0.01061   0.01049   2.06273
   A34        2.17986  -0.00550   0.00000  -0.02195  -0.02207   2.15779
    D1        0.00302   0.00000   0.00000  -0.00028  -0.00028   0.00274
    D2       -3.13667   0.00017   0.00000   0.00769   0.00768  -3.12899
    D3        3.14030  -0.00005   0.00000  -0.00238  -0.00238   3.13792
    D4        0.00061   0.00012   0.00000   0.00559   0.00558   0.00619
    D5       -0.00133   0.00006   0.00000   0.00276   0.00275   0.00142
    D6        3.13756  -0.00001   0.00000  -0.00031  -0.00030   3.13726
    D7       -3.13861   0.00011   0.00000   0.00486   0.00485  -3.13376
    D8        0.00028   0.00004   0.00000   0.00179   0.00180   0.00208
    D9        0.00034  -0.00011   0.00000  -0.00485  -0.00486  -0.00452
   D10       -3.07861   0.00004   0.00000   0.00102   0.00102  -3.07759
   D11        3.14006  -0.00028   0.00000  -0.01270  -0.01272   3.12734
   D12        0.06110  -0.00013   0.00000  -0.00683  -0.00684   0.05427
   D13       -0.00519   0.00016   0.00000   0.00715   0.00714   0.00195
   D14        3.14075   0.00020   0.00000   0.00951   0.00951  -3.13293
   D15        3.07430   0.00006   0.00000   0.00152   0.00152   3.07582
   D16       -0.06295   0.00010   0.00000   0.00389   0.00389  -0.05906
   D17       -1.50799  -0.00046   0.00000  -0.02741  -0.02740  -1.53539
   D18        1.69390  -0.00036   0.00000  -0.02193  -0.02193   1.67196
   D19        0.00699  -0.00010   0.00000  -0.00454  -0.00454   0.00246
   D20       -3.13206  -0.00011   0.00000  -0.00494  -0.00493  -3.13699
   D21       -3.13892  -0.00015   0.00000  -0.00692  -0.00692   3.13735
   D22        0.00521  -0.00016   0.00000  -0.00731  -0.00732  -0.00210
   D23       -0.00384  -0.00001   0.00000  -0.00029  -0.00029  -0.00413
   D24        3.14039   0.00006   0.00000   0.00273   0.00274  -3.14005
   D25        3.13520   0.00000   0.00000   0.00011   0.00011   3.13531
   D26       -0.00375   0.00007   0.00000   0.00312   0.00313  -0.00062
   D27       -3.11959   0.00006   0.00000   0.00795   0.00794  -3.11165
   D28        0.02355  -0.00014   0.00000  -0.02056  -0.02055   0.00299
   D29        0.02444   0.00005   0.00000   0.00757   0.00756   0.03201
   D30       -3.11560  -0.00015   0.00000  -0.02094  -0.02093  -3.13653
   D31       -1.04884  -0.00005   0.00000  -0.00145  -0.00146  -1.05030
   D32        1.07056  -0.00021   0.00000  -0.00325  -0.00325   1.06731
   D33       -3.13041  -0.00014   0.00000  -0.00245  -0.00245  -3.13286
   D34       -3.01448  -0.00063   0.00000  -0.00885  -0.00885  -3.02333
   D35       -0.89508  -0.00079   0.00000  -0.01065  -0.01064  -0.90572
   D36        1.18714  -0.00072   0.00000  -0.00985  -0.00985   1.17729
   D37        0.91285   0.00091   0.00000   0.00929   0.00929   0.92214
   D38        3.03225   0.00076   0.00000   0.00749   0.00750   3.03975
   D39       -1.16872   0.00083   0.00000   0.00829   0.00829  -1.16042
   D40       -3.06019   0.00012   0.00000   0.00569   0.00570  -3.05449
   D41       -1.11251   0.00081   0.00000   0.00971   0.00972  -1.10279
   D42        1.28133  -0.00068   0.00000   0.00051   0.00049   1.28182
         Item               Value     Threshold  Converged?
 Maximum Force            0.005500     0.000450     NO 
 RMS     Force            0.001068     0.000300     NO 
 Maximum Displacement     0.071195     0.001800     NO 
 RMS     Displacement     0.019801     0.001200     NO 
 Predicted change in Energy=-2.268285D-04
 GradGradGradGradGradGradGradGradGradGradGradGradGradGradGradGradGradGrad

 Leave Link  103 at Tue Aug 20 14:58:39 2019, MaxMem=  524288000 cpu:       0.2
 (Enter /home/ubuntu/g09/l202.exe)
                          Input orientation:                          
 ---------------------------------------------------------------------
 Center     Atomic      Atomic             Coordinates (Angstroms)
 Number     Number       Type             X           Y           Z
 ---------------------------------------------------------------------
      1          6           0        2.324695    2.313820   -0.214322
      2          6           0        0.981249    1.971055   -0.391875
      3          6           0        0.625863    0.620454   -0.421619
      4          6           0        1.564266   -0.396806   -0.285779
      5          6           0        2.895386   -0.015358   -0.113457
      6          6           0        3.296168    1.321578   -0.072300
      7          1           0        2.616096    3.362508   -0.192633
      8          1           0        0.216808    2.735536   -0.515294
      9          1           0        1.275694   -1.443088   -0.318650
     10         16           0       -1.734788    0.166646    0.651725
     11          6           0       -3.205251   -0.485371   -0.373516
     12          8           0       -0.711787    0.262454   -0.677344
     13          8           0       -1.284241   -0.892606    1.571519
     14          8           0       -2.063429    1.515562    1.146105
     15          9           0       -3.527164    0.405755   -1.307640
     16          9           0       -2.878962   -1.647244   -0.932800
     17          9           0       -4.222267   -0.651810    0.473618
     18          1           0        4.344759    1.571462    0.062427
     19          7           0        3.914205   -1.075272    0.027491
     20          8           0        5.080942   -0.737293    0.211214
     21          8           0        3.543737   -2.245853   -0.016608
 ---------------------------------------------------------------------
                    Distance matrix (angstroms):
                    1          2          3          4          5
     1  C    0.000000
     2  C    1.397805   0.000000
     3  C    2.407591   1.396892   0.000000
     4  C    2.816177   2.440888   1.390638   0.000000
     5  C    2.400194   2.772593   2.376964   1.395377   0.000000
     6  C    1.395878   2.425448   2.782827   2.449061   1.396323
     7  H    1.088637   2.156052   3.395928   3.904800   3.390317
     8  H    2.170625   1.088132   2.156310   3.417585   3.860527
     9  H    3.902006   3.427599   2.165892   1.085846   2.168852
    10  S    4.673307   3.423719   2.632618   3.475651   4.696503
    11  C    6.200090   4.853983   3.987806   4.771147   6.124240
    12  O    3.693605   2.422227   1.408143   2.401743   3.661536
    13  O    5.147312   4.145832   3.148086   3.436476   4.591077
    14  O    4.663004   3.441354   3.239022   4.343687   5.340417
    15  F    6.251425   4.859484   4.251912   5.254614   6.546186
    16  F    6.579079   5.318450   4.205657   4.660955   6.056192
    17  F    7.220176   5.891102   5.091608   5.841719   7.170126
    18  H    2.169873   3.417494   3.868968   3.424393   2.156297
    19  N    3.751129   4.249495   3.726981   2.465901   1.476915
    20  O    4.133675   4.950389   4.700180   3.567905   2.324491
    21  O    4.723958   4.948685   4.110200   2.722082   2.324833
                    6          7          8          9         10
     6  C    0.000000
     7  H    2.154617   0.000000
     8  H    3.417305   2.500757   0.000000
     9  H    3.433130   4.990623   4.315183   0.000000
    10  S    5.212350   5.464125   3.430722   3.549066   0.000000
    11  C    6.754572   6.980471   4.701578   4.582477   1.907487
    12  O    4.189454   4.573848   2.646636   2.643410   1.679921
    13  O    5.346485   6.035798   4.446499   3.229401   1.473441
    14  O    5.499765   5.205899   3.073770   4.695621   1.473767
    15  F    6.994473   6.908348   4.480292   5.240588   2.666252
    16  F    6.905548   7.472691   5.382087   4.204762   2.666468
[...]
 5740,0.00115855,0.00056070,0.00062556,-0.00088742,0.00070384,0.0001928
 4,-0.00012650,0.00010005,-0.00008274,0.00004022,-0.00000799,-0.0005031
 8,-0.00108169,0.00077004,0.00066436,-0.00057221,-0.00044145,-0.1646267
 4,0.85317117,0.00073085,-0.00267471,-0.00003427,-0.01130094,-0.0027362
 9,-0.00189718,0.05217924,0.01296426,0.01590292,-0.01054465,-0.00183158
 ,-0.00200380,-0.00116614,0.00351407,-0.00053760,-0.00201818,-0.0005757
 0,-0.00018251,-0.00115935,-0.00033101,-0.00011430,0.00053384,0.0005917
 8,0.00033519,0.00064637,-0.00052710,0.00057315,0.07156439,-0.03273859,
 0.55187684,0.00023270,0.00010883,-0.00004894,0.00119370,0.00006803,0.0
 0039360,-0.00660084,-0.00190570,-0.00100271,0.00118172,0.00042306,0.00
 028735,0.00025008,-0.00049391,0.00003942,0.00056543,0.00036036,0.00009
 672,0.00019233,0.00008332,0.00001221,-0.00010985,-0.00020577,0.0000519
 1,-0.00021576,0.00027711,0.00002658,-0.10259958,-0.03574174,-0.0474407
 3,0.43830870,-0.00004373,0.00016459,0.00009035,0.00093635,-0.00012783,
 0.00016089,-0.00314714,-0.00036041,-0.00118095,0.00039381,0.00024659,0
 .00016005,0.00028348,-0.00017467,0.00002890,0.00031413,0.00004403,0.00
 003648,0.00011742,0.00004461,0.00000165,-0.00005321,-0.00008222,-0.000
 00284,-0.00010325,0.00012769,0.00000399,-0.03691717,-0.04515916,-0.022
 82293,-0.02645309,0.48490785,0.00018911,0.00034831,0.00047426,0.001806
 28,-0.00059170,0.00012025,-0.00408730,0.00000085,-0.00714005,0.0008513
 2,0.00096678,-0.00002763,0.00035926,-0.00041155,0.00049600,0.00044977,
 0.00023119,0.00000485,0.00023957,0.00007718,0.00006447,-0.00007628,-0.
 00011215,-0.00020099,-0.00011258,0.00014221,-0.00024868,-0.05849389,-0
 .02611894,-0.06491712,-0.02846403,-0.01420219,0.46910761,0.00486950,-0
 .00590991,0.00013147,-0.03760938,-0.01489808,-0.00852826,-0.17019775,-
 0.02711091,-0.03555109,-0.05383313,-0.00714672,-0.01161046,0.00039915,
 0.00952990,-0.00013643,-0.00335157,-0.00072306,-0.00055894,-0.00208655
 ,-0.00026497,0.00001757,0.00157426,0.00114015,0.00099621,0.00287217,-0
 .00178817,0.00117659,-0.07524957,-0.01014817,0.01165279,0.00759405,0.0
 0747864,0.03138839,0.34406695,0.00213763,-0.00645148,0.00195656,-0.043
 47327,-0.00563957,-0.00788961,-0.02856513,-0.06588485,-0.00856484,0.02
 004108,0.01093140,0.00337510,0.00048669,-0.00239405,-0.00082214,-0.000
 86620,0.00066231,-0.00010757,-0.00177007,-0.00017247,-0.00024015,0.000
 81036,0.00280799,0.00001897,-0.00086609,0.00198967,-0.00015818,-0.0069
 0777,-0.03973943,-0.00289699,0.00096530,0.00336195,0.00820190,0.057621
 67,0.09750935,-0.00052858,0.00170589,0.00637907,0.00123812,0.00020455,
 0.00513049,-0.04945795,-0.01103319,-0.06889198,-0.00137027,-0.00073415
 ,0.00436109,-0.00081618,-0.00148759,0.00695800,-0.00008107,0.00045671,
 -0.00107660,0.00037695,0.00009833,-0.00002434,0.00050451,-0.00023307,-
 0.00358167,0.00062780,-0.00011179,-0.00404838,0.02216822,0.00020098,-0
 .12031163,-0.00736724,-0.00308434,0.00345033,0.00587036,0.00543109,0.1
 8871837,-0.00042646,-0.00000106,0.00001284,0.00015116,0.00034196,-0.00
 027617,0.00476379,0.00147582,-0.00082157,-0.00028594,0.00053872,0.0001
 9631,0.00033348,0.00031830,0.00040261,-0.00011015,-0.00053141,-0.00015
 211,-0.00004295,-0.00002214,0.00003689,-0.00002395,-0.00002665,0.00000
 624,0.00023748,-0.00069167,-0.00029376,-0.12826033,0.11132239,-0.10802
 843,0.01648810,0.01971470,0.00162868,0.00742556,-0.00829096,0.01616584
 ,0.10031085,0.00020178,-0.00004372,-0.00001633,-0.00098196,-0.00012766
 ,-0.00012002,0.00599165,0.00126453,-0.00042412,-0.00030119,-0.00089509
 ,-0.00028100,-0.00049386,0.00014415,-0.00010477,-0.00034552,0.00011313
 ,-0.00000417,-0.00010956,-0.00003882,-0.00001913,0.00009934,0.00021102
 ,-0.00003744,-0.00005785,0.00027122,0.00010659,0.11292870,-0.29678082,
 0.19770379,-0.00668772,-0.00334764,-0.00311373,0.00147577,0.00082503,0
 .00693965,-0.12900921,0.30913378,-0.00033271,0.00038298,0.00025364,0.0
 0247166,0.00004189,0.00021147,-0.00963196,-0.00142886,-0.00057522,0.00
 057135,0.00028811,0.00016590,0.00077563,-0.00004445,0.00007637,0.00062
 395,-0.00019836,0.00008045,0.00023295,0.00008179,0.00001055,-0.0000812
 9,-0.00017272,-0.00010241,-0.00007830,0.00026663,-0.00017237,-0.106732
 69,0.20027824,-0.23951108,0.01307427,0.02048471,0.00484811,0.00136538,
 0.01899646,-0.01457979,0.10603110,-0.22333015,0.24412543,-0.00037384,0
 .00018228,0.00013391,-0.00018891,-0.00023172,-0.00012332,0.00807263,0.
 00237991,-0.00081189,-0.00114777,-0.00032722,-0.00024736,-0.00010234,0
 .00050070,-0.00015123,-0.00030238,-0.00043691,-0.00008589,-0.00010656,
 -0.00005985,-0.00000395,-0.00015103,0.00034550,-0.00004367,0.00008804,
 -0.00018573,0.00006166,-0.09820213,0.10065693,0.03196736,0.01210296,-0
 .00394116,0.00130470,-0.00091528,0.01443430,0.01439262,0.01165091,0.01
 426758,0.00571475,0.07369357,0.00050655,0.00020722,0.00016456,0.000798
 72,-0.00118958,0.00031273,-0.00302997,-0.00149808,-0.00080674,0.001100
 85,0.00055742,-0.00026384,-0.00033654,-0.00021659,0.00016409,0.0002753
 1,0.00041296,-0.00007002,0.00010702,0.00003555,0.00004363,-0.00000855,
 0.00041647,-0.00026797,-0.00021307,0.00022805,0.00002928,0.09725283,-0
 .44432882,-0.15214151,0.02729618,-0.00177215,0.00847823,0.00316833,0.0
 0387934,0.00188316,0.01099366,-0.01662424,-0.01021616,-0.12205214,0.46
 382105,0.00050572,-0.00008847,0.00003941,0.00056799,0.00006071,0.00012
 111,-0.00631288,-0.00399190,-0.00159317,0.00203769,0.00096809,0.000001
 57,0.00004025,-0.00061176,0.00042006,0.00041311,0.00046973,0.00003081,
 0.00014369,0.00006512,0.00002035,0.00004705,-0.00015970,-0.00013233,-0
 .00009904,0.00015995,-0.00019810,0.03325014,-0.15447179,-0.12335662,0.
 01722928,-0.00590120,0.00796069,0.01447350,-0.01465716,-0.00569917,-0.
 00502449,0.02125743,0.01164649,-0.04655366,0.16278363,0.11488056,-0.00
 004099,-0.00002354,-0.00003716,-0.00035471,0.00002554,-0.00008600,0.00
 246558,0.00053790,0.00024486,-0.00019992,-0.00008415,-0.00011605,-0.00
 010482,0.00008697,0.00000031,-0.00018238,-0.00007295,-0.00002207,-0.00
 005723,-0.00002323,-0.00000428,0.00001825,0.00005454,-0.00000536,0.000
 05632,-0.00009088,-0.00001612,0.00431905,0.01945897,-0.01415391,-0.088
 99457,0.04266899,-0.05465158,-0.00559126,-0.00161142,0.00155115,-0.007
 74534,0.00035439,-0.00658741,-0.00125901,-0.00552442,-0.00116169,0.084
 91949,0.00002266,0.00001446,0.00003512,0.00011568,-0.00006440,0.000040
 07,-0.00044468,0.00025994,-0.00058500,-0.00004867,0.00000638,0.0000042
 4,0.00002123,0.00001863,0.00004231,0.00003915,0.00001881,0.00000220,0.
 00001830,0.00000370,0.00000239,-0.00000019,-0.00001295,-0.00002300,-0.
 00001844,0.00002961,-0.00001836,-0.00239742,-0.00352757,0.00314904,0.0
 3801953,-0.13971061,0.08888494,0.00125733,0.00067034,-0.00072354,0.001
 49443,0.00043896,0.00103860,0.00035321,0.00357003,0.00077832,-0.057957
 05,0.21389007,-0.00005088,-0.00006357,-0.00012838,-0.00053943,0.000116
 38,-0.00007419,0.00196539,-0.00024400,0.00157819,-0.00003585,-0.000084
 07,-0.00010595,-0.00013053,0.00004095,-0.00010063,-0.00016994,-0.00006
 576,-0.00001394,-0.00006986,-0.00002533,-0.00001053,0.00001879,0.00005
 905,0.00003201,0.00006831,-0.00010002,0.00004357,0.00131634,0.02445080
 ,-0.01344366,-0.05038088,0.09399656,-0.17937327,-0.00592181,-0.0022243
 1,0.00248682,-0.00870896,0.00021279,-0.00739356,-0.00090189,-0.0057620
 1,-0.00044249,0.04992300,-0.15414863,0.22950984,-0.00003435,-0.0000076
 4,0.00003470,-0.00017005,-0.00001929,-0.00005125,0.00136644,0.00023676
 ,-0.00003798,-0.00014079,-0.00001045,-0.00001663,-0.00004352,0.0000644
 5,-0.00001428,-0.00008204,-0.00006013,-0.00001126,-0.00002943,-0.00001
 138,-0.00000369,0.00001396,0.00003549,-0.00001638,0.00001252,-0.000043
 22,-0.00002012,0.00841737,-0.00910264,-0.00422642,-0.07297134,0.029502
 60,0.01346858,-0.00228848,-0.00125066,0.00030575,-0.00136327,0.0005427
 3,-0.00067008,-0.00247046,-0.00415540,-0.00314025,0.00249169,0.0314682
 8,-0.00275440,0.08960259,-0.00008560,0.00002920,-0.00005775,-0.0001948
 7,0.00004207,-0.00012230,0.00211047,0.00118975,0.00112098,-0.00040830,
 -0.00027887,-0.00005722,-0.00012895,0.00014879,-0.00010576,-0.00018542
 ,-0.00010771,-0.00001229,-0.00005444,-0.00002446,-0.00000821,0.0000276
 9,0.00008833,0.00002770,0.00003922,-0.00007327,0.00003476,0.01890193,-
 0.01890660,-0.00772296,0.03562347,-0.22631842,-0.08392571,-0.00664391,
 -0.00121956,0.00167602,-0.00543910,0.00450529,-0.00318753,-0.00585331,
 -0.00746771,-0.00626142,0.02303507,-0.06666886,0.00822867,-0.08287892,
 0.31520889,-0.00008956,0.00001632,-0.00007428,-0.00015105,0.00003857,-
 0.00008780,0.00117951,0.00087525,0.00125965,-0.00033289,-0.00024983,-0
 .00000642,-0.00008947,0.00012698,-0.00011893,-0.00012233,-0.00008908,-
 0.00000382,-0.00004009,-0.00001926,-0.00001162,0.00002910,0.00006775,0
 .00003963,0.00003324,-0.00005370,0.00004624,0.01284594,-0.01784170,-0.
 00285828,0.01787942,-0.08572646,-0.10906920,-0.00519535,-0.00063714,0.
 00122969,-0.00258622,0.00225394,-0.00118702,-0.00438931,-0.00625316,-0
 .00510295,-0.00680067,0.02464715,0.01620261,-0.04412579,0.11314544,0.1
 2502918,-0.00014537,-0.00022141,-0.00024625,-0.00128555,0.00035771,-0.
 00003844,0.00418254,0.00034731,0.00321689,-0.00063098,-0.00059381,0.00
 004735,-0.00028494,0.00025865,-0.00026349,-0.00034403,-0.00015221,-0.0
 0000877,-0.00016641,-0.00005078,-0.00004601,0.00006248,0.00010526,0.00
 011003,0.00010749,-0.00013585,0.00011909,-0.01520765,-0.00111258,0.031
 94448,-0.20673944,-0.03080405,0.09407227,-0.01483589,-0.00411018,-0.00
 398732,-0.00313001,0.00217039,-0.00685744,-0.00034323,-0.00630547,-0.0
 0661491,0.01028176,-0.01193551,0.01638325,-0.02229494,0.02216854,0.031
 98408,0.25086207,-0.00000561,-0.00008866,-0.00009072,-0.00046035,0.000
 14369,0.00000853,0.00137163,0.00009933,0.00106903,-0.00017447,-0.00019
 407,0.00000840,-0.00012433,0.00007318,-0.00009252,-0.00012721,-0.00002
 747,0.00000176,-0.00005852,-0.00001576,-0.00001074,0.00002849,0.000032
 32,0.00002363,0.00003232,-0.00004458,0.00004535,-0.00667236,0.00368010
 ,0.01009961,-0.03200206,-0.07199906,0.02086123,-0.00507806,-0.00132769
 ,-0.00129199,-0.00206459,0.00108989,-0.00354228,0.00016696,-0.00014708
 ,-0.00060254,-0.02075038,-0.00895421,0.03569914,0.03572437,-0.00005045
 ,-0.03023078,0.03021982,0.07780034,0.00000135,0.00001742,-0.00000962,0
 .00011641,0.00004046,0.00002338,-0.00058888,-0.00016127,0.00012477,0.0
 0011090,-0.00000790,0.00003055,0.00002345,-0.00002624,-0.00000471,0.00
 002014,0.00000650,0.00000846,0.00001220,0.00000307,0.,-0.00000422,-0.0
 0001827,-0.00000020,-0.00001564,0.00002625,-0.00000358,-0.00015271,-0.
 00103098,0.00055178,0.08560706,0.01795364,-0.12555574,0.00036562,0.000
 16706,-0.00013540,0.00140804,-0.00104053,0.00216160,-0.00029940,0.0019
 0181,0.00141226,0.03191415,0.03687714,-0.04877719,0.04128559,-0.022770
 85,-0.02528801,-0.15981545,-0.03195303,0.19546365,-0.01190215,-0.00619
 509,-0.00195723,-0.00045179,0.00270528,-0.00110210,0.00036014,0.000623
 59,0.00009910,0.00147570,-0.00070029,-0.00044205,-0.00426311,-0.000983
 07,-0.00108811,-0.33202676,-0.06601052,-0.03689499,0.00076948,-0.00022
 964,0.00065148,-0.00050792,-0.00036494,-0.00001407,-0.00001718,0.00008
 414,-0.00009502,-0.00000634,0.00001799,-0.00001115,-0.00001494,-0.0000
 0425,-0.00000178,-0.00004727,-0.00003511,0.00013683,0.00000401,0.00000
 888,-0.00000582,0.00000096,-0.00003272,-0.00000986,0.00000445,-0.00000
 186,0.00000275,0.00000142,0.00000446,0.00000226,0.00000541,0.00000277,
 0.00000110,0.34919096,0.02228457,0.00911501,0.00281357,0.00315753,-0.0
 0302996,0.00064689,0.00055426,-0.00111623,0.00007056,-0.00041138,-0.00
 546679,0.00010881,-0.02823277,-0.00126152,-0.00349118,-0.06439230,-0.0
 7059460,-0.00779201,-0.00043205,0.00098660,-0.00016314,0.00101991,0.00
 039989,0.00011468,-0.00136488,0.00006667,-0.00017455,0.00006002,-0.000
 07199,-0.00001197,0.00001387,0.00000327,0.00000756,-0.00004272,0.00024
 064,-0.00001294,-0.00003950,0.00002355,-0.00000262,-0.00000296,0.00004
 017,0.00000911,-0.00000404,0.00000032,-0.00000351,-0.00000085,-0.00000
 153,-0.00000198,-0.00000673,-0.00000089,0.00000097,0.06744953,0.069459
 81,-0.00268872,-0.00076065,0.00487216,-0.00096741,0.00060546,0.0070754
 0,-0.00006642,0.00008031,-0.00061427,-0.00037978,0.00006837,0.00481718
 ,-0.00074805,-0.00005934,0.00483043,-0.03676446,-0.00801816,-0.0431532
 3,0.00067524,-0.00014505,-0.00423217,-0.00007664,-0.00006026,-0.000323
 27,-0.00009031,0.00000808,0.00067458,0.00009527,0.00008848,0.00004221,
 0.00000763,-0.00000551,-0.00005617,0.00017565,-0.00014960,-0.00069469,
 -0.00001885,0.00001793,-0.00006338,0.00001286,-0.00001110,-0.00003386,
 0.00000513,-0.00000528,0.00001617,-0.00000429,0.00000813,0.00001161,0.
 00003870,0.00001115,-0.00000260,0.04064609,0.00792705,0.03055920,0.007
 04997,-0.00706818,-0.00002427,-0.00173430,-0.00206411,-0.00016352,-0.0
 0599805,-0.00965916,-0.00184071,-0.03487593,0.02840140,-0.00465864,-0.
 10914768,0.00312182,-0.00361789,0.01210238,0.02114765,0.00135804,0.000
 77517,-0.00116065,0.00007019,-0.00020325,-0.00002548,0.00008833,0.0001
 4216,-0.00046946,0.00058759,-0.00249488,-0.00008886,0.00259202,-0.0009
 0020,-0.00047383,-0.00084018,0.00250558,0.00171393,-0.00054083,0.00056
 972,0.00035593,-0.00082013,0.00069511,-0.00035873,-0.00061124,0.000278
 11,-0.00007809,0.00031281,0.00013989,0.00029772,0.00022345,0.00062321,
 0.00021005,-0.00004503,-0.00315214,-0.00256428,0.00021503,0.76427657,-
 0.00803016,-0.00423822,-0.00081258,-0.00369282,-0.00305390,-0.00034039
 ,-0.00164035,0.01051609,-0.00003458,0.02268215,0.00851039,0.00276091,0
 .00388762,-0.11019112,0.00076676,0.02535990,-0.03608951,0.00372067,0.0
 0110626,-0.00002684,0.00014107,-0.00010465,-0.00026218,0.00000392,-0.0
 0263010,-0.00260832,-0.00029548,0.00310271,0.00057212,-0.00433459,0.00
 116683,0.00067471,0.00119196,-0.00673048,-0.00076073,0.00058429,-0.000
 48486,-0.00067071,0.00118923,-0.00088863,0.00048655,0.00094694,-0.0003
 5336,0.00007592,-0.00037949,-0.00016705,-0.00042846,-0.00031408,-0.000
 87069,-0.00029994,0.00006148,-0.00021711,0.00036746,-0.00011661,0.1324
 2075,0.75304354,-0.00002271,-0.00074101,0.00844217,-0.00011204,-0.0002
 2677,-0.00145254,-0.00196648,-0.00113170,0.00859491,-0.00433697,0.0035
 2533,-0.00278439,-0.00383489,0.00050933,-0.08205397,0.00142716,0.00339
 633,-0.00186139,0.00000724,-0.00013871,0.00067202,0.00011101,-0.000034
 13,-0.00101116,0.00062011,-0.00007243,-0.00444892,-0.00072694,-0.00004
 967,0.00044963,-0.00015760,-0.00006933,-0.00004004,0.00081496,0.000205
 28,0.00057883,0.00010988,0.00006762,-0.00015758,0.00013911,-0.00002241
 ,-0.00007608,0.00004972,-0.00000466,0.00003457,0.00002015,0.00003190,0
 .00001788,0.00004797,0.00001551,-0.00001041,0.00016755,-0.00041538,-0.
 00436917,0.06762814,0.01012906,0.23983990,-0.00197246,0.00075937,-0.00
 020948,-0.00091365,-0.00094039,-0.00000386,0.00068989,0.00377781,0.000
 31738,0.00396164,0.00746618,0.00001846,-0.06477115,0.00843219,-0.01108
 516,-0.00169209,-0.00824682,-0.00019300,-0.00004498,0.00031725,-0.0000
 2776,0.00005204,0.00008585,0.00000783,0.00133212,-0.00021851,0.0001422
 7,0.00210855,0.00021211,-0.00283007,0.00075944,0.00040005,0.00072853,-
 0.00424395,-0.00030529,0.00057247,-0.00036045,-0.00033640,0.00071028,-
 0.00054630,0.00036667,0.00060947,-0.00022573,0.00005216,-0.00023969,-0
 .00011399,-0.00025159,-0.00019026,-0.00053577,-0.00017983,0.00004108,0
 .00013568,0.00220945,-0.00006981,-0.48167030,-0.06925101,-0.05182377,0
 .59444266,-0.00024899,0.00214039,-0.00009355,0.00188531,0.00032979,0.0
 0022110,0.00042463,-0.00032543,-0.00006298,0.00029725,-0.00424479,0.00
 016007,0.02196931,0.01634941,0.00294629,0.00331847,-0.00774487,0.00066
 431,-0.00005256,-0.00010594,-0.00000069,0.00023703,0.00009792,0.000028
 42,0.00065553,0.00030152,0.00007641,-0.00081942,-0.00013927,0.00121242
 ,-0.00031368,-0.00017650,-0.00031971,0.00195134,0.00006693,-0.00014016
 ,0.00011428,0.00018361,-0.00032154,0.00022872,-0.00016192,-0.00027441,
 0.00009153,-0.00001984,0.00009878,0.00004379,0.00011460,0.00008529,0.0
 0023478,0.00007975,-0.00001665,0.00404485,-0.00042426,0.00056036,-0.07
 317333,-0.13943334,-0.00872254,0.13579729,0.16904210,-0.00017716,0.000
 05699,-0.00068135,-0.00013789,-0.00014822,0.00008347,0.00020035,0.0004
 4434,-0.00109920,0.00005075,0.00108074,0.00326749,-0.01115925,0.001189
 53,0.01782573,-0.00044079,-0.00088381,0.00103959,-0.00000774,0.0000472
 2,0.00003368,-0.00000003,0.00001225,0.00002678,0.00011632,-0.00003316,
 0.00042465,0.00044361,0.00001135,-0.00039024,0.00010815,0.00005409,0.0
 0006100,-0.00069474,0.00003249,-0.00031972,-0.00005422,-0.00005482,0.0
 0011593,-0.00007681,0.00003075,0.00006172,-0.00003366,0.00000426,-0.00
 002502,-0.00001558,-0.00002866,-0.00001849,-0.00005576,-0.00001816,0.0
 0000685,-0.00010081,0.00028542,0.00034172,-0.05173620,-0.00811199,-0.0
 8308287,0.07193497,0.01562869,0.03679801,0.00010688,0.00181898,0.00011
 939,0.00027837,0.00184107,0.00000100,0.00307966,-0.00067468,0.00062150
 ,-0.00785271,0.00423447,-0.00124619,0.01789851,0.01678278,-0.00040688,
 -0.00372458,0.00028091,-0.00087215,-0.00031094,0.00030198,0.00000296,0
 .00008493,0.00020801,-0.00000681,0.00000737,0.00393029,-0.00009023,0.0
 0084157,-0.00004387,-0.00093138,0.00027731,0.00013070,0.00024115,-0.00
 105715,-0.00015881,0.00023882,-0.00018620,-0.00007385,0.00022652,-0.00
 019494,0.00015087,0.00021010,-0.00007876,0.00001996,-0.00008652,-0.000
 04322,-0.00008413,-0.00006401,-0.00018074,-0.00005864,0.00001424,0.000
 44137,0.00074532,0.00000314,-0.14898114,-0.09466494,-0.00816160,-0.046
 39119,-0.09668614,-0.00816353,0.18598561,0.00249927,-0.00308035,0.0003
 7302,-0.00031741,-0.00011623,-0.00012962,-0.00166422,-0.00340599,-0.00
 024785,-0.00775224,-0.00125007,-0.00095066,0.00267255,-0.06799093,0.00
 156257,0.00825626,0.00414547,0.00104484,0.00061586,-0.00071938,0.00010
 873,0.00015038,0.00009347,0.00000744,0.00226658,-0.00056745,0.00025187
 ,-0.00164598,-0.00023807,0.00211095,-0.00060221,-0.00034662,-0.0005966
 7,0.00286204,0.00064489,-0.00032789,0.00028689,0.00032455,-0.00060397,
 0.00046352,-0.00024862,-0.00047868,0.00018153,-0.00003873,0.00019758,0
 .00008918,0.00021898,0.00016048,0.00043679,0.00015126,-0.00003008,-0.0
 0016688,0.00126437,-0.00004377,-0.09048509,-0.47618352,-0.00625163,-0.
 08014653,-0.03592984,-0.00959930,0.16199971,0.58327279,0.00013324,0.00
 026549,-0.00122047,0.00003423,0.00022809,0.00018803,0.00056855,-0.0000
 7313,-0.00082098,-0.00105335,0.00054185,0.00086925,-0.00023228,0.00342
 196,0.01940553,-0.00100147,0.00001278,0.00314045,0.00000466,0.00003861
 ,-0.00041949,-0.00000892,0.00003298,0.00011097,-0.00006765,0.00050659,
 0.00031863,0.00014769,0.00000805,-0.00017345,0.00004850,0.00002443,0.0
 0004132,-0.00023141,-0.00003722,0.00007068,-0.00003362,-0.00001355,0.0
 0004645,-0.00003861,0.00002304,0.00003974,-0.00001235,0.00000269,-0.00
 001495,-0.00000639,-0.00001296,-0.00000966,-0.00003029,-0.00001055,0.0
 0000417,0.00001582,0.00008465,0.00030217,-0.00817697,-0.00675650,-0.07
 728137,-0.00840987,-0.01172992,0.02553028,0.01835048,0.01344263,0.0298
 7269\\-0.00000333,0.00000446,0.00000333,0.00000031,-0.00000520,0.00000
 358,0.00001688,0.00001266,-0.00000009,0.00000738,-0.00002273,0.0000016
 6,-0.00004204,0.00005011,-0.00000505,0.00001659,-0.00001882,0.00000346
 ,-0.00000039,-0.00000261,0.00000394,0.00000152,0.00000164,0.00000126,-
 0.00000120,0.00000149,-0.00000258,-0.00001041,-0.00000752,-0.00002155,
 0.00004153,0.00002686,0.00002178,-0.00001365,0.00000125,0.00001908,-0.
 00000756,0.00001386,-0.00000953,0.00000790,-0.00001245,-0.00000280,-0.
 00001190,0.00000280,-0.00000651,-0.00000840,-0.00001386,-0.00001158,-0
 .00001016,-0.00000163,-0.00000567,-0.00000077,0.00000063,0.00000313,0.
 00002393,-0.00003693,0.00000628,-0.00001384,-0.00000726,-0.00000187,0.
 00000760,0.00001324,-0.00000026\\\@


 THE WORLD IS NOT A HAMBURGER - YOU CAN'T HAVE IT YOUR WAY.
 Job cpu time:  0 days  8 hours  4 minutes 52.6 seconds.
 File lengths (MBytes):  RWF=    459 Int=      0 D2E=      0 Chk=     18 Scr=      1
 Normal termination of Gaussian 09 at Tue Aug 20 17:32:45 2019.
