 Entering Gaussian System, Link 0=/home/ubuntu/g09/g09
 Input=m-NO2-Ph-N2-OTf-RB3LYP-aug-cc-pVDZ-T348-Water.gjf
 Output=m-NO2-Ph-N2-OTf-RB3LYP-aug-cc-pVDZ-T348-Water.log
 Initial command:
 /home/ubuntu/g09/l1.exe /home/ubuntu/g09/Gau-2516.inp -scrdir=/home/ubuntu/g09/
 Entering Link 1 = /home/ubuntu/g09/l1.exe PID=      2518.
  
 Copyright (c) 1988,1990,1992,1993,1995,1998,2003,2009,2010,
            Gaussian, Inc.  All Rights Reserved.
  
 This is part of the Gaussian(R) 09 program.  It is based on
 the Gaussian(R) 03 system (copyright 2003, Gaussian, Inc.),
 the Gaussian(R) 98 system (copyright 1998, Gaussian, Inc.),
 the Gaussian(R) 94 system (copyright 1995, Gaussian, Inc.),
 the Gaussian 92(TM) system (copyright 1992, Gaussian, Inc.),
 the Gaussian 90(TM) system (copyright 1990, Gaussian, Inc.),
 the Gaussian 88(TM) system (copyright 1988, Gaussian, Inc.),
 the Gaussian 86(TM) system (copyright 1986, Carnegie Mellon
 University), and the Gaussian 82(TM) system (copyright 1983,
 Carnegie Mellon University). Gaussian is a federally registered
 trademark of Gaussian, Inc.
  
 This software contains proprietary and confidential information,
 including trade secrets, belonging to Gaussian, Inc.
  
 This software is provided under written license and may be
 used, copied, transmitted, or stored only in accord with that
 written license.
  
 The following legend is applicable only to US Government
 contracts under FAR:
  
                    RESTRICTED RIGHTS LEGEND
  
 Use, reproduction and disclosure by the US Government is
 subject to restrictions as set forth in subparagraphs (a)
 and (c) of the Commercial Computer Software - Restricted
 Rights clause in FAR 52.227-19.
  
 Gaussian, Inc.
 340 Quinnipiac St., Bldg. 40, Wallingford CT 06492
  
  
 ---------------------------------------------------------------
 Warning -- This program may not be used in any manner that
 competes with the business of Gaussian, Inc. or will provide
 assistance to any competitor of Gaussian, Inc.  The licensee
 of this program is prohibited from giving any competitor of
 Gaussian, Inc. access to this program.  By using this program,
 the user acknowledges that Gaussian, Inc. is engaged in the
 business of creating and licensing software in the field of
 computational chemistry and represents and warrants to the
 licensee that it is not a competitor of Gaussian, Inc. and that
 it will not use this program in any manner prohibited above.
 ---------------------------------------------------------------
  

 Cite this work as:
 Gaussian 09, Revision B.01,
 M. J. Frisch, G. W. Trucks, H. B. Schlegel, G. E. Scuseria, 
 M. A. Robb, J. R. Cheeseman, G. Scalmani, V. Barone, B. Mennucci, 
 G. A. Petersson, H. Nakatsuji, M. Caricato, X. Li, H. P. Hratchian, 
 A. F. Izmaylov, J. Bloino, G. Zheng, J. L. Sonnenberg, M. Hada, 
 M. Ehara, K. Toyota, R. Fukuda, J. Hasegawa, M. Ishida, T. Nakajima, 
 Y. Honda, O. Kitao, H. Nakai, T. Vreven, J. A. Montgomery, Jr., 
 J. E. Peralta, F. Ogliaro, M. Bearpark, J. J. Heyd, E. Brothers, 
 K. N. Kudin, V. N. Staroverov, T. Keith, R. Kobayashi, J. Normand, 
 K. Raghavachari, A. Rendell, J. C. Burant, S. S. Iyengar, J. Tomasi, 
 M. Cossi, N. Rega, J. M. Millam, M. Klene, J. E. Knox, J. B. Cross, 
 V. Bakken, C. Adamo, J. Jaramillo, R. Gomperts, R. E. Stratmann, 
 O. Yazyev, A. J. Austin, R. Cammi, C. Pomelli, J. W. Ochterski, 
 R. L. Martin, K. Morokuma, V. G. Zakrzewski, G. A. Voth, 
 P. Salvador, J. J. Dannenberg, S. Dapprich, A. D. Daniels, 
 O. Farkas, J. B. Foresman, J. V. Ortiz, J. Cioslowski, 
 and D. J. Fox, Gaussian, Inc., Wallingford CT, 2010.
 
 ******************************************
 Gaussian 09:  EM64L-G09RevB.01 12-Aug-2010
                22-Aug-2019 
 ******************************************
 %mem=500MW
 %nproc=7
 Will use up to    7 processors via shared memory.
 ----------------------------------------------------------------------
 #p scrf=(cpcm,solvent=water) opt=(cartesian,tight,maxcycles=2000) scf=
 (verytight,maxcycles=700) NoSymm Temperature=348.15 int=(grid=ultrafin
 e) CPHF=(grid=fine) freq rb3lyp/aug-cc-pvdz
 ----------------------------------------------------------------------
 1/6=2000,7=10,10=7,14=-1,18=10,26=3,38=1,112=348150/1,3;
 2/12=2,15=1,17=6,18=5,29=2,40=1/2;
 3/5=16,7=10,11=2,16=1,25=1,30=1,70=2101,71=1,72=1,74=-5,75=-5,116=1/1,2,3;
 4//1;
 5/5=2,7=700,17=3,38=5,53=1,96=4/2;
 6/7=2,8=2,9=2,10=2,28=1/1;
 7/7=1,29=1,30=1/1,2,3,16;
 1/6=2000,7=10,10=7,14=-1,18=10/3(2);
 2/15=1,29=1/2;
 99/12=1/99;
 2/15=1,29=1/2;
 3/5=16,7=10,11=2,16=1,25=1,30=1,70=2105,71=1,72=1,74=-5,75=-5,116=1/1,2,3;
 4/5=5,16=3/1;
 5/5=2,7=700,17=3,38=5,53=1,96=4/2;
 7/7=1,30=1/1,2,3,16;
 1/6=2000,7=10,14=-1,18=10/3(-5);
 2/15=1,29=1/2;
 6/7=2,8=2,9=2,10=2,19=2,28=1/1;
 99/9=1,12=1/99;
 Leave Link    1 at Thu Aug 22 05:47:12 2019, MaxMem=  524288000 cpu:       0.7
 (Enter /home/ubuntu/g09/l101.exe)
 ------------------------------------
 m-NO2-Ph-N2-OTf-RB3LYP-aug-cc-pVDZ--
 ------------------------------------
 Symbolic Z-matrix:
 Charge =  0 Multiplicity = 1
 C                    -1.73173  -1.60774  -0.70743 
 C                    -0.88184  -0.50789  -0.58715 
 C                    -1.46412   0.70369  -0.17788 
 C                    -2.82619   0.87393   0.09898 
 C                    -3.61833  -0.25781  -0.03079 
 C                    -3.09676  -1.49373  -0.42761 
 H                    -1.31905  -2.5648   -1.02195 
 H                     0.1888   -0.5339   -0.81981 
 H                    -3.25164   1.82551   0.40705 
 N                    -0.62859   1.81404  -0.04042 
 N                     0.20653   2.54083   0.11291 
 S                     2.75451   0.67961  -0.26166 
 C                     3.28033  -1.01992   0.40239 
 O                     1.86075   0.33396  -1.43079 
 O                     4.01934   1.38471  -0.57131 
 O                     1.94775   1.2324    0.9095 
 F                     2.1827   -1.76674   0.68405 
 F                     4.00667  -1.67739  -0.51411 
 F                     4.00341  -0.89712   1.52326 
 H                    -3.76744  -2.34594  -0.51426 
 N                    -5.06746  -0.1374    0.25916 
 O                    -5.74793  -1.14732   0.13588 
 O                    -5.47982   0.96514   0.60074 
 
 NAtoms=     23 NQM=     23 NQMF=      0 NMic=      0 NMicF=      0 NTot=     23.
                    Isotopes and Nuclear Properties:
 (Nuclear quadrupole moments (NQMom) in fm**2, nuclear magnetic moments (NMagM)
  in nuclear magnetons)

  Atom         1           2           3           4           5           6           7           8           9          10
 IAtWgt=          12          12          12          12          12          12           1           1           1          14
 AtmWgt=  12.0000000  12.0000000  12.0000000  12.0000000  12.0000000  12.0000000   1.0078250   1.0078250   1.0078250  14.0030740
 NucSpn=           0           0           0           0           0           0           1           1           1           2
 AtZEff=   0.0000000   0.0000000   0.0000000   0.0000000   0.0000000   0.0000000   0.0000000   0.0000000   0.0000000   0.0000000
 NQMom=    0.0000000   0.0000000   0.0000000   0.0000000   0.0000000   0.0000000   0.0000000   0.0000000   0.0000000   2.0440000
 NMagM=    0.0000000   0.0000000   0.0000000   0.0000000   0.0000000   0.0000000   2.7928460   2.7928460   2.7928460   0.4037610

  Atom        11          12          13          14          15          16          17          18          19          20
 IAtWgt=          14          32          12          16          16          16          19          19          19           1
 AtmWgt=  14.0030740  31.9720718  12.0000000  15.9949146  15.9949146  15.9949146  18.9984033  18.9984033  18.9984033   1.0078250
 NucSpn=           2           0           0           0           0           0           1           1           1           1
 AtZEff=   0.0000000   0.0000000   0.0000000   0.0000000   0.0000000   0.0000000   0.0000000   0.0000000   0.0000000   0.0000000
 NQMom=    2.0440000   0.0000000   0.0000000   0.0000000   0.0000000   0.0000000   0.0000000   0.0000000   0.0000000   0.0000000
 NMagM=    0.4037610   0.0000000   0.0000000   0.0000000   0.0000000   0.0000000   2.6288670   2.6288670   2.6288670   2.7928460

  Atom        21          22          23
 IAtWgt=          14          16          16
 AtmWgt=  14.0030740  15.9949146  15.9949146
 NucSpn=           2           0           0
 AtZEff=   0.0000000   0.0000000   0.0000000
 NQMom=    2.0440000   0.0000000   0.0000000
 NMagM=    0.4037610   0.0000000   0.0000000
 Leave Link  101 at Thu Aug 22 05:47:12 2019, MaxMem=  524288000 cpu:       0.4
 (Enter /home/ubuntu/g09/l103.exe)

 GradGradGradGradGradGradGradGradGradGradGradGradGradGradGradGradGradGrad
 Berny optimization.
 Initialization pass.
 No Z-matrix variables, so optimization will use Cartesian coordinates.
 Trust Radius=3.00D-01 FncErr=1.00D-07 GrdErr=1.00D-06
 Number of steps in this run=    138 maximum allowed number of steps=    138.
 GradGradGradGradGradGradGradGradGradGradGradGradGradGradGradGradGradGrad

 Leave Link  103 at Thu Aug 22 05:47:12 2019, MaxMem=  524288000 cpu:       0.1
 (Enter /home/ubuntu/g09/l202.exe)
 ---------------------------------------------------------------------------------------------------
                            Z-MATRIX (ANGSTROMS AND DEGREES)
   CD    Cent   Atom    N1       Length/X        N2       Alpha/Y        N3        Beta/Z          J
 ---------------------------------------------------------------------------------------------------
      1      1  C        0  -1.731730         -1.607740         -0.707430
      2      2  C        0  -0.881840         -0.507890         -0.587150
      3      3  C        0  -1.464120          0.703690         -0.177880
      4      4  C        0  -2.826190          0.873930          0.098980
      5      5  C        0  -3.618330         -0.257810         -0.030790
      6      6  C        0  -3.096760         -1.493730         -0.427610
      7      7  H        0  -1.319050         -2.564800         -1.021950
      8      8  H        0   0.188800         -0.533900         -0.819810
      9      9  H        0  -3.251640          1.825510          0.407050
     10     10  N        0  -0.628590          1.814040         -0.040420
     11     11  N        0   0.206530          2.540830          0.112910
     12     12  S        0   2.754510          0.679610         -0.261660
     13     13  C        0   3.280330         -1.019920          0.402390
     14     14  O        0   1.860750          0.333960         -1.430790
     15     15  O        0   4.019340          1.384710         -0.571310
     16     16  O        0   1.947750          1.232400          0.909500
     17     17  F        0   2.182700         -1.766740          0.684050
     18     18  F        0   4.006670         -1.677390         -0.514110
     19     19  F        0   4.003410         -0.897120          1.523260
     20     20  H        0  -3.767440         -2.345940         -0.514260
     21     21  N        0  -5.067460         -0.137400          0.259160
     22     22  O        0  -5.747930         -1.147320          0.135880
     23     23  O        0  -5.479820          0.965140          0.600740
 ---------------------------------------------------------------------------------------------------
                         Z-Matrix orientation:                         
 ---------------------------------------------------------------------
 Center     Atomic      Atomic             Coordinates (Angstroms)
 Number     Number       Type             X           Y           Z
 ---------------------------------------------------------------------
      1          6           0       -1.731730   -1.607740   -0.707430
      2          6           0       -0.881840   -0.507890   -0.587150
      3          6           0       -1.464120    0.703690   -0.177880
      4          6           0       -2.826190    0.873930    0.098980
      5          6           0       -3.618330   -0.257810   -0.030790
      6          6           0       -3.096760   -1.493730   -0.427610
      7          1           0       -1.319050   -2.564800   -1.021950
      8          1           0        0.188800   -0.533900   -0.819810
      9          1           0       -3.251640    1.825510    0.407050
     10          7           0       -0.628590    1.814040   -0.040420
     11          7           0        0.206530    2.540830    0.112910
     12         16           0        2.754510    0.679610   -0.261660
     13          6           0        3.280330   -1.019920    0.402390
     14          8           0        1.860750    0.333960   -1.430790
     15          8           0        4.019340    1.384710   -0.571310
     16          8           0        1.947750    1.232400    0.909500
     17          9           0        2.182700   -1.766740    0.684050
     18          9           0        4.006670   -1.677390   -0.514110
     19          9           0        4.003410   -0.897120    1.523260
     20          1           0       -3.767440   -2.345940   -0.514260
     21          7           0       -5.067460   -0.137400    0.259160
     22          8           0       -5.747930   -1.147320    0.135880
     23          8           0       -5.479820    0.965140    0.600740
 ---------------------------------------------------------------------
                    Distance matrix (angstroms):
                    1          2          3          4          5
     1  C    0.000000
     2  C    1.395152   0.000000
     3  C    2.386367   1.405161   0.000000
     4  C    2.829634   2.482075   1.400310   0.000000
     5  C    2.416488   2.803650   2.363628   1.387502   0.000000
     6  C    1.398072   2.429651   2.748915   2.440557   1.398928
     7  H    1.088665   2.147343   3.378835   3.918267   3.404598
     8  H    2.203224   1.095937   2.162371   3.452003   3.897822
     9  H    3.916554   3.471187   2.189943   1.086931   2.160182
    10  N    3.656556   2.398835   1.396382   2.394303   3.637472
    11  N    4.651929   3.311997   2.500143   3.460656   4.741581
    12  S    5.055396   3.839159   4.219531   5.595716   6.445552
    13  C    5.167009   4.308715   5.081078   6.400649   6.954133
    14  O    4.147211   2.990358   3.572288   4.959755   5.685992
    15  O    6.484450   5.253927   5.539577   6.897207   7.830967
    16  O    4.921324   3.643508   3.619777   4.855507   5.838332
    17  F    4.157434   3.548529   4.488345   5.692488   6.036540
    18  F    5.742078   5.026987   5.975963   7.319364   7.771064
    19  F    6.194577   5.335822   5.945616   7.197821   7.804788
    20  H    2.174021   3.422050   3.836493   3.410217   2.148549
    21  N    3.771378   4.286364   3.725922   2.464090   1.482750
    22  O    4.129530   4.960895   4.677148   3.552939   2.313915
    23  O    4.730666   4.972154   4.098835   2.702191   2.315077
                    6          7          8          9         10
     6  C    0.000000
     7  H    2.158862   0.000000
     8  H    3.445286   2.537524   0.000000
     9  H    3.426076   5.005174   4.348405   0.000000
    10  N    4.145253   4.540306   2.605455   2.660968   0.000000
    11  N    5.242286   5.448189   3.213136   3.543606   1.117658
    12  S    6.244062   5.262901   2.892578   6.150943   3.575087
    13  C    6.448308   5.056649   3.359694   7.124825   4.848409
    14  O    5.378078   4.322162   1.980377   5.633730   3.212566
    15  O    7.677561   6.655833   4.291370   7.349738   4.697810
    16  O    5.887846   5.368539   3.033848   5.257175   2.806810
    17  F    5.402131   3.976127   2.785162   6.520202   4.609793
    18  F    7.106330   5.422978   3.997143   8.111838   5.822379
    19  F    7.387439   6.130892   4.491454   7.829073   5.590251
    20  H    1.087925   2.510032   4.362188   4.303006   5.232814
    21  N    2.488964   4.645868   5.380489   2.678076   4.858131
    22  O    2.732439   4.792160   6.044369   3.891364   5.916788
    23  O    3.575265   5.692592   6.033103   2.396359   4.966503
                   11         12         13         14         15
    11  N    0.000000
    12  S    3.177522   0.000000
    13  C    4.712853   1.898908   0.000000
    14  O    3.160653   1.511670   2.684911   0.000000
    15  O    4.042560   1.480825   2.697494   2.549959   0.000000
    16  O    2.319136   1.525796   2.665685   2.508330   2.550977
    17  F    4.773532   2.684392   1.357153   2.998190   3.857566
    18  F    5.712057   2.680874   1.341570   3.080715   3.062660
    19  F    5.312710   2.689195   1.339505   3.851358   3.097455
    20  H    6.329795   7.193997   7.229774   6.300668   8.634521
    21  N    5.916864   7.881749   8.395532   7.146902   9.250753
    22  O    7.004182   8.705584   9.033091   7.908265  10.114883
    23  O    5.920756   8.284289   8.984433   7.642609   9.580385
                   16         17         18         19         20
    16  O    0.000000
    17  F    3.016765   0.000000
    18  F    3.838319   2.184133   0.000000
    19  F    3.022796   2.185291   2.181676   0.000000
    20  H    6.891662   6.097178   7.802804   8.163129   0.000000
    21  N    7.177219   7.443124   9.236306   9.189984   2.676916
    22  O    8.092283   7.973648   9.790592   9.852718   2.404519
    23  O    7.438787   8.135375   9.910567   9.708280   3.890851
                   21         22         23
    21  N    0.000000
    22  O    1.224000   0.000000
    23  O    1.225688   2.179556   0.000000
 Symmetry turned off by external request.
 Stoichiometry    C7H4F3N3O5S
 Framework group  C1[X(C7H4F3N3O5S)]
 Deg. of freedom    63
 Full point group                 C1      NOp   1
 Rotational constants (GHZ):      0.8248405      0.1477341      0.1343077
 Leave Link  202 at Thu Aug 22 05:47:12 2019, MaxMem=  524288000 cpu:       0.0
 (Enter /home/ubuntu/g09/l301.exe)
 Standard basis: Aug-CC-pVDZ (5D, 7F)
 Ernie: Thresh=  0.10000D-02 Tol=  0.10000D-05 Strict=F.
 Ernie:  46 primitive shells out of 531 were deleted.
 Integral buffers will be    131072 words long.
 Raffenetti 2 integral format.
 Two-electron integral symmetry is turned off.
   477 basis functions,   899 primitive gaussians,   515 cartesian basis functions
    75 alpha electrons       75 beta electrons
       nuclear repulsion energy      1627.6628828070 Hartrees.
 IExCor=  402 DFT=T Ex+Corr=B3LYP ExCW=0 ScaHFX=  0.200000
 ScaDFX=  0.800000  0.720000  1.000000  0.810000 ScalE2=  1.000000  1.000000
 IRadAn=      5 IRanWt=     -1 IRanGd=            0 ICorTp=0
 NAtoms=   23 NActive=   23 NUniq=   23 SFac= 1.00D+00 NAtFMM=   50 NAOKFM=F Big=F
 ------------------------------------------------------------------------------
 Polarizable Continuum Model (PCM)
 =================================
 Model                : C-PCM.
 Atomic radii         : UFF (Universal Force Field).
 Polarization charges : Total charges.
 Charge compensation  : None.
 Solution method      : Matrix inversion.
 Cavity type          : Scaled VdW (van der Waals Surface) (Alpha=1.100).
 Cavity algorithm     : GePol (No added spheres)
                        Default sphere list used, NSphG=   23.
                        Lebedev-Laikov grids with approx.  5.0 points / Ang**2.
                        Smoothing algorithm: Karplus/York (Gamma=1.0000).
                        Polarization charges: spherical gaussians, with
                                              point-specific exponents (IZeta= 3).
                        Self-potential: point-specific (ISelfS= 7).
                        Self-field    : sphere-specific E.n sum rule (ISelfD= 2).
 1st derivatives      : Analytical E(r).r(x)/FMM algorithm (CHGder, D1EAlg=3).
                        Cavity 1st derivative terms included.
 Solvent              : Water, Eps=  78.355300 Eps(inf)=   1.777849
 ------------------------------------------------------------------------------
 GePol: Number of generator spheres                  =      23
 GePol: Total number of spheres                      =      23
 GePol: Number of exposed spheres                    =      23 (100.00%)
 GePol: Number of points                             =    2357
 GePol: Average weight of points                     =       0.13
 GePol: Minimum weight of points                     =   0.17D-08
 GePol: Maximum weight of points                     =    0.20577
 GePol: Number of points with low weight             =     108
 GePol: Fraction of low-weight points (<1% of avg)   =       4.58%
 GePol: Cavity surface area                          =    300.584 Ang**2
 GePol: Cavity volume                                =    314.560 Ang**3
 Leave Link  301 at Thu Aug 22 05:47:12 2019, MaxMem=  524288000 cpu:       0.4
 (Enter /home/ubuntu/g09/l302.exe)
 NPDir=0 NMtPBC=     1 NCelOv=     1 NCel=       1 NClECP=     1 NCelD=      1
         NCelK=      1 NCelE2=     1 NClLst=     1 CellRange=     0.0.
 One-electron integrals computed using PRISM.
 NBasis=   477 RedAO= T  NBF=   477
 NBsUse=   477 1.00D-06 NBFU=   477
 Precomputing XC quadrature grid using
 IXCGrd= 2 IRadAn=           5 IRanWt=          -1 IRanGd=           0 AccXCQ= 0.00D+00.
 NRdTot=    1980 NPtTot=      536848 NUsed=      551020 NTot=      551052
 NSgBfM=   511   511   511   511   511 NAtAll=    23    23.
 Leave Link  302 at Thu Aug 22 05:47:13 2019, MaxMem=  524288000 cpu:       5.8
 (Enter /home/ubuntu/g09/l303.exe)
 DipDrv:  MaxL=1.
 Leave Link  303 at Thu Aug 22 05:47:13 2019, MaxMem=  524288000 cpu:       0.7
 (Enter /home/ubuntu/g09/l401.exe)
 Harris functional with IExCor=  402 diagonalized for initial guess.
 ExpMin= 2.97D-02 ExpMax= 1.11D+05 ExpMxC= 1.07D+03 IAcc=3 IRadAn=         5 AccDes= 0.00D+00
 HarFok:  IExCor=  402 AccDes= 0.00D+00 IRadAn=         5 IDoV= 1
 ScaDFX=  1.000000  1.000000  1.000000  1.000000
 FoFCou: FMM=F IPFlag=           0 FMFlag=      100000 FMFlg1=           0
         NFxFlg=           0 DoJE=T BraDBF=F KetDBF=T FulRan=T
         Omega=  0.000000  0.000000  1.000000  0.000000  0.000000 ICntrl=     500 IOpCl=  0
         NMat0=    1 NMatS0=    1 NMatT0=    0 NMatD0=    1 NMtDS0=    0 NMtDT0=    0
         I1Cent=           4 NGrid=           0.
 Symmetry not used in FoFCou.
 Harris En= -1507.16773591966    
 Leave Link  401 at Thu Aug 22 05:47:20 2019, MaxMem=  524288000 cpu:      45.2
 (Enter /home/ubuntu/g09/l502.exe)
 Closed shell SCF:
 Requested convergence on RMS density matrix=1.00D-08 within 700 cycles.
 Requested convergence on MAX density matrix=1.00D-06.
 Requested convergence on             energy=1.00D-06.
 No special actions if energy rises.
 Using DIIS extrapolation, IDIIS=  1040.
 Two-electron integral symmetry not used.
       550800 words used for storage of precomputed grid.
 IEnd=     1847838 IEndB=     1847838 NGot=   524288000 MDV=   523197303
 LenX=   523197303 LenY=   522931563
 Fock matrices will be formed incrementally for  20 cycles.

 Cycle   1  Pass 1  IDiag  1:
 FoFCou: FMM=F IPFlag=           0 FMFlag=      100000 FMFlg1=           0
         NFxFlg=           0 DoJE=F BraDBF=F KetDBF=F FulRan=T
         Omega=  0.000000  0.000000  1.000000  0.000000  0.000000 ICntrl=       0 IOpCl=  0
         NMat0=    1 NMatS0=    1 NMatT0=    0 NMatD0=    1 NMtDS0=    0 NMtDT0=    0
         I1Cent=           0 NGrid=           0.
 Symmetry not used in FoFCou.
 E= -1506.57564656229    
 DIIS: error= 1.78D-02 at cycle   1 NSaved=   1.
 NSaved= 1 IEnMin= 1 EnMin= -1506.57564656229     IErMin= 1 ErrMin= 1.78D-02
 ErrMax= 1.78D-02 EMaxC= 1.00D-01 BMatC= 7.78D-01 BMatP= 7.78D-01
 IDIUse=3 WtCom= 8.22D-01 WtEn= 1.78D-01
 Coeff-Com:  0.100D+01
 Coeff-En:   0.100D+01
 Coeff:      0.100D+01
 Gap=     0.204 Goal=   None    Shift=    0.000
 GapD=    0.204 DampG=1.000 DampE=0.500 DampFc=0.5000 IDamp=-1.
 Damping current iteration by 5.00D-01
 RMSDP=3.54D-02 MaxDP=2.97D+00              OVMax= 9.13D-01

 Cycle   2  Pass 1  IDiag  1:
 RMSU=  7.10D-03    CP:  8.64D-01
 E= -1506.19184091812     Delta-E=        0.383805644168 Rises=F Damp=T
 DIIS: error= 1.50D-02 at cycle   2 NSaved=   2.
 NSaved= 2 IEnMin= 1 EnMin= -1506.57564656229     IErMin= 2 ErrMin= 1.50D-02
 ErrMax= 1.50D-02 EMaxC= 1.00D-01 BMatC= 3.62D-01 BMatP= 7.78D-01
 IDIUse=3 WtCom= 8.50D-01 WtEn= 1.50D-01
 Coeff-Com:  0.393D+00 0.607D+00
 Coeff-En:   0.651D+00 0.349D+00
 Coeff:      0.431D+00 0.569D+00
 Gap=     0.000 Goal=   None    Shift=    0.000
 RMSDP=2.02D-02 MaxDP=2.84D+00 DE= 3.84D-01 OVMax= 9.23D-01

 Cycle   3  Pass 1  IDiag  1:
 RMSU=  5.49D-03    CP:  6.90D-01  1.18D+00
 E= -1507.07355422739     Delta-E=       -0.881713309270 Rises=F Damp=F
 DIIS: error= 7.20D-03 at cycle   3 NSaved=   3.
 NSaved= 3 IEnMin= 3 EnMin= -1507.07355422739     IErMin= 3 ErrMin= 7.20D-03
 ErrMax= 7.20D-03 EMaxC= 1.00D-01 BMatC= 1.15D-01 BMatP= 3.62D-01
 IDIUse=3 WtCom= 9.28D-01 WtEn= 7.20D-02
 Coeff-Com:  0.222D+00 0.367D+00 0.411D+00
 Coeff-En:   0.000D+00 0.000D+00 0.100D+01
 Coeff:      0.206D+00 0.340D+00 0.453D+00
 Gap=     0.196 Goal=   None    Shift=    0.000
 RMSDP=3.83D-03 MaxDP=4.51D-01 DE=-8.82D-01 OVMax= 6.77D-02

 Cycle   4  Pass 1  IDiag  1:
 RMSU=  1.88D-03    CP:  7.05D-01  1.10D+00  7.33D-01
 E= -1507.17745781760     Delta-E=       -0.103903590212 Rises=F Damp=F
 DIIS: error= 3.03D-03 at cycle   4 NSaved=   4.
 NSaved= 4 IEnMin= 4 EnMin= -1507.17745781760     IErMin= 4 ErrMin= 3.03D-03
 ErrMax= 3.03D-03 EMaxC= 1.00D-01 BMatC= 1.43D-02 BMatP= 1.15D-01
 IDIUse=3 WtCom= 9.70D-01 WtEn= 3.03D-02
 Coeff-Com:  0.289D-01 0.162D+00 0.146D+00 0.663D+00
 Coeff-En:   0.000D+00 0.000D+00 0.000D+00 0.100D+01
 Coeff:      0.281D-01 0.157D+00 0.142D+00 0.673D+00
 Gap=     0.153 Goal=   None    Shift=    0.000
 RMSDP=1.06D-03 MaxDP=7.90D-02 DE=-1.04D-01 OVMax= 3.60D-02

 Cycle   5  Pass 1  IDiag  1:
 RMSU=  6.93D-04    CP:  7.08D-01  1.09D+00  6.92D-01  1.02D+00
 E= -1507.18306834756     Delta-E=       -0.005610529963 Rises=F Damp=F
 DIIS: error= 2.62D-03 at cycle   5 NSaved=   5.
 NSaved= 5 IEnMin= 5 EnMin= -1507.18306834756     IErMin= 5 ErrMin= 2.62D-03
 ErrMax= 2.62D-03 EMaxC= 1.00D-01 BMatC= 8.19D-03 BMatP= 1.43D-02
 IDIUse=3 WtCom= 9.74D-01 WtEn= 2.62D-02
 Coeff-Com: -0.318D-01 0.590D-01-0.330D-01 0.494D+00 0.512D+00
 Coeff-En:   0.000D+00 0.000D+00 0.000D+00 0.306D+00 0.694D+00
 Coeff:     -0.310D-01 0.575D-01-0.322D-01 0.489D+00 0.517D+00
 Gap=     0.149 Goal=   None    Shift=    0.000
 RMSDP=7.09D-04 MaxDP=4.15D-02 DE=-5.61D-03 OVMax= 1.70D-02

 Cycle   6  Pass 1  IDiag  1:
 RMSU=  2.97D-04    CP:  7.05D-01  1.12D+00  6.71D-01  1.15D+00  8.97D-01
 E= -1507.18924679898     Delta-E=       -0.006178451416 Rises=F Damp=F
 DIIS: error= 1.12D-03 at cycle   6 NSaved=   6.
 NSaved= 6 IEnMin= 6 EnMin= -1507.18924679898     IErMin= 6 ErrMin= 1.12D-03
 ErrMax= 1.12D-03 EMaxC= 1.00D-01 BMatC= 8.20D-04 BMatP= 8.19D-03
 IDIUse=3 WtCom= 9.89D-01 WtEn= 1.12D-02
 Coeff-Com: -0.247D-01 0.262D-01-0.487D-01 0.246D+00 0.334D+00 0.467D+00
 Coeff-En:   0.000D+00 0.000D+00 0.000D+00 0.000D+00 0.000D+00 0.100D+01
 Coeff:     -0.244D-01 0.259D-01-0.482D-01 0.243D+00 0.330D+00 0.473D+00
 Gap=     0.147 Goal=   None    Shift=    0.000
 RMSDP=2.05D-04 MaxDP=1.01D-02 DE=-6.18D-03 OVMax= 6.55D-03

 Cycle   7  Pass 1  IDiag  1:
 RMSU=  1.08D-04    CP:  7.04D-01  1.13D+00  6.73D-01  1.16D+00  9.26D-01
                    CP:  1.02D+00
 E= -1507.18980837319     Delta-E=       -0.000561574212 Rises=F Damp=F
 DIIS: error= 5.82D-04 at cycle   7 NSaved=   7.
 NSaved= 7 IEnMin= 7 EnMin= -1507.18980837319     IErMin= 7 ErrMin= 5.82D-04
 ErrMax= 5.82D-04 EMaxC= 1.00D-01 BMatC= 1.62D-04 BMatP= 8.20D-04
 IDIUse=3 WtCom= 9.94D-01 WtEn= 5.82D-03
 Coeff-Com: -0.104D-01 0.817D-02-0.304D-01 0.621D-01 0.115D+00 0.331D+00
 Coeff-Com:  0.525D+00
 Coeff-En:   0.000D+00 0.000D+00 0.000D+00 0.000D+00 0.000D+00 0.966D-01
 Coeff-En:   0.903D+00
 Coeff:     -0.103D-01 0.812D-02-0.302D-01 0.617D-01 0.114D+00 0.330D+00
 Coeff:      0.527D+00
 Gap=     0.146 Goal=   None    Shift=    0.000
 RMSDP=1.21D-04 MaxDP=8.72D-03 DE=-5.62D-04 OVMax= 3.38D-03

 Cycle   8  Pass 1  IDiag  1:
 RMSU=  5.71D-05    CP:  7.04D-01  1.14D+00  6.69D-01  1.18D+00  9.44D-01
                    CP:  1.01D+00  6.90D-01
 E= -1507.18994076239     Delta-E=       -0.000132389195 Rises=F Damp=F
 DIIS: error= 7.52D-05 at cycle   8 NSaved=   8.
 NSaved= 8 IEnMin= 8 EnMin= -1507.18994076239     IErMin= 8 ErrMin= 7.52D-05
 ErrMax= 7.52D-05 EMaxC= 1.00D-01 BMatC= 1.74D-05 BMatP= 1.62D-04
 IDIUse=1 WtCom= 1.00D+00 WtEn= 0.00D+00
 Coeff-Com: -0.180D-02 0.875D-03-0.995D-02-0.853D-02 0.627D-02 0.105D+00
 Coeff-Com:  0.312D+00 0.596D+00
 Coeff:     -0.180D-02 0.875D-03-0.995D-02-0.853D-02 0.627D-02 0.105D+00
 Coeff:      0.312D+00 0.596D+00
 Gap=     0.146 Goal=   None    Shift=    0.000
 RMSDP=4.34D-05 MaxDP=1.89D-03 DE=-1.32D-04 OVMax= 1.11D-03

 Cycle   9  Pass 1  IDiag  1:
 RMSU=  2.09D-05    CP:  7.04D-01  1.14D+00  6.68D-01  1.18D+00  9.54D-01
                    CP:  1.04D+00  7.78D-01  8.85D-01
 E= -1507.18995356439     Delta-E=       -0.000012802006 Rises=F Damp=F
 DIIS: error= 3.17D-05 at cycle   9 NSaved=   9.
 NSaved= 9 IEnMin= 9 EnMin= -1507.18995356439     IErMin= 9 ErrMin= 3.17D-05
 ErrMax= 3.17D-05 EMaxC= 1.00D-01 BMatC= 2.28D-06 BMatP= 1.74D-05
 IDIUse=1 WtCom= 1.00D+00 WtEn= 0.00D+00
 Coeff-Com: -0.240D-04-0.502D-04-0.254D-02-0.103D-01-0.735D-02 0.286D-01
 Coeff-Com:  0.130D+00 0.358D+00 0.504D+00
 Coeff:     -0.240D-04-0.502D-04-0.254D-02-0.103D-01-0.735D-02 0.286D-01
 Coeff:      0.130D+00 0.358D+00 0.504D+00
 Gap=     0.146 Goal=   None    Shift=    0.000
 RMSDP=1.22D-05 MaxDP=6.79D-04 DE=-1.28D-05 OVMax= 6.64D-04

 Cycle  10  Pass 1  IDiag  1:
 RMSU=  7.35D-06    CP:  7.04D-01  1.14D+00  6.67D-01  1.18D+00  9.55D-01
                    CP:  1.04D+00  7.75D-01  8.89D-01  8.75D-01
 E= -1507.18995490439     Delta-E=       -0.000001339994 Rises=F Damp=F
 DIIS: error= 2.31D-05 at cycle  10 NSaved=  10.
 NSaved=10 IEnMin=10 EnMin= -1507.18995490439     IErMin=10 ErrMin= 2.31D-05
 ErrMax= 2.31D-05 EMaxC= 1.00D-01 BMatC= 5.67D-07 BMatP= 2.28D-06
 IDIUse=1 WtCom= 1.00D+00 WtEn= 0.00D+00
 Coeff-Com:  0.226D-03-0.925D-04-0.325D-03-0.561D-02-0.576D-02 0.653D-02
 Coeff-Com:  0.491D-01 0.171D+00 0.355D+00 0.430D+00
 Coeff:      0.226D-03-0.925D-04-0.325D-03-0.561D-02-0.576D-02 0.653D-02
 Coeff:      0.491D-01 0.171D+00 0.355D+00 0.430D+00
 Gap=     0.146 Goal=   None    Shift=    0.000
 RMSDP=5.28D-06 MaxDP=2.69D-04 DE=-1.34D-06 OVMax= 3.59D-04

 Cycle  11  Pass 1  IDiag  1:
 RMSU=  3.10D-06    CP:  7.04D-01  1.14D+00  6.67D-01  1.18D+00  9.54D-01
                    CP:  1.04D+00  7.77D-01  8.93D-01  9.52D-01  9.01D-01
 E= -1507.18995530374     Delta-E=       -0.000000399355 Rises=F Damp=F
 DIIS: error= 7.80D-06 at cycle  11 NSaved=  11.
 NSaved=11 IEnMin=11 EnMin= -1507.18995530374     IErMin=11 ErrMin= 7.80D-06
 ErrMax= 7.80D-06 EMaxC= 1.00D-01 BMatC= 6.73D-08 BMatP= 5.67D-07
 IDIUse=1 WtCom= 1.00D+00 WtEn= 0.00D+00
 Coeff-Com:  0.149D-03-0.469D-04 0.208D-03-0.189D-02-0.253D-02 0.452D-03
 Coeff-Com:  0.126D-01 0.587D-01 0.154D+00 0.284D+00 0.495D+00
 Coeff:      0.149D-03-0.469D-04 0.208D-03-0.189D-02-0.253D-02 0.452D-03
 Coeff:      0.126D-01 0.587D-01 0.154D+00 0.284D+00 0.495D+00
 Gap=     0.146 Goal=   None    Shift=    0.000
 RMSDP=2.98D-06 MaxDP=1.56D-04 DE=-3.99D-07 OVMax= 1.15D-04

 Cycle  12  Pass 1  IDiag  1:
 RMSU=  1.23D-06    CP:  7.04D-01  1.14D+00  6.67D-01  1.18D+00  9.53D-01
                    CP:  1.04D+00  7.75D-01  9.04D-01  9.15D-01  9.68D-01
                    CP:  8.80D-01
 E= -1507.18995535020     Delta-E=       -0.000000046458 Rises=F Damp=F
 DIIS: error= 2.51D-06 at cycle  12 NSaved=  12.
 NSaved=12 IEnMin=12 EnMin= -1507.18995535020     IErMin=12 ErrMin= 2.51D-06
 ErrMax= 2.51D-06 EMaxC= 1.00D-01 BMatC= 1.10D-08 BMatP= 6.73D-08
 IDIUse=1 WtCom= 1.00D+00 WtEn= 0.00D+00
 Coeff-Com:  0.583D-04-0.293D-04 0.216D-03-0.172D-03-0.582D-03-0.749D-03
 Coeff-Com: -0.834D-03 0.692D-02 0.334D-01 0.105D+00 0.323D+00 0.533D+00
 Coeff:      0.583D-04-0.293D-04 0.216D-03-0.172D-03-0.582D-03-0.749D-03
 Coeff:     -0.834D-03 0.692D-02 0.334D-01 0.105D+00 0.323D+00 0.533D+00
 Gap=     0.146 Goal=   None    Shift=    0.000
 RMSDP=9.56D-07 MaxDP=7.55D-05 DE=-4.65D-08 OVMax= 2.91D-05

 Cycle  13  Pass 1  IDiag  1:
 RMSU=  3.68D-07    CP:  7.04D-01  1.14D+00  6.67D-01  1.18D+00  9.53D-01
                    CP:  1.04D+00  7.76D-01  9.06D-01  9.29D-01  9.78D-01
                    CP:  9.38D-01  8.36D-01
 E= -1507.18995535785     Delta-E=       -0.000000007647 Rises=F Damp=F
 DIIS: error= 8.81D-07 at cycle  13 NSaved=  13.
 NSaved=13 IEnMin=13 EnMin= -1507.18995535785     IErMin=13 ErrMin= 8.81D-07
 ErrMax= 8.81D-07 EMaxC= 1.00D-01 BMatC= 1.95D-09 BMatP= 1.10D-08
 IDIUse=1 WtCom= 1.00D+00 WtEn= 0.00D+00
 Coeff-Com:  0.134D-04-0.139D-04 0.109D-03 0.223D-03 0.828D-04-0.461D-03
 Coeff-Com: -0.260D-02-0.548D-02-0.598D-02 0.167D-01 0.120D+00 0.349D+00
 Coeff-Com:  0.529D+00
 Coeff:      0.134D-04-0.139D-04 0.109D-03 0.223D-03 0.828D-04-0.461D-03
 Coeff:     -0.260D-02-0.548D-02-0.598D-02 0.167D-01 0.120D+00 0.349D+00
 Coeff:      0.529D+00
 Gap=     0.146 Goal=   None    Shift=    0.000
 RMSDP=3.72D-07 MaxDP=2.79D-05 DE=-7.65D-09 OVMax= 9.06D-06

 Cycle  14  Pass 1  IDiag  1:
 RMSU=  1.83D-07    CP:  7.04D-01  1.14D+00  6.67D-01  1.18D+00  9.53D-01
                    CP:  1.04D+00  7.76D-01  9.07D-01  9.34D-01  9.81D-01
                    CP:  9.28D-01  8.48D-01  1.01D+00
 E= -1507.18995535940     Delta-E=       -0.000000001556 Rises=F Damp=F
 DIIS: error= 2.11D-07 at cycle  14 NSaved=  14.
 NSaved=14 IEnMin=14 EnMin= -1507.18995535940     IErMin=14 ErrMin= 2.11D-07
 ErrMax= 2.11D-07 EMaxC= 1.00D-01 BMatC= 9.34D-11 BMatP= 1.95D-09
 IDIUse=1 WtCom= 1.00D+00 WtEn= 0.00D+00
 Coeff-Com:  0.123D-06-0.378D-05 0.227D-04 0.101D-03 0.101D-03-0.557D-04
 Coeff-Com: -0.809D-03-0.267D-02-0.541D-02-0.476D-02 0.757D-02 0.622D-01
 Coeff-Com:  0.192D+00 0.752D+00
 Coeff:      0.123D-06-0.378D-05 0.227D-04 0.101D-03 0.101D-03-0.557D-04
 Coeff:     -0.809D-03-0.267D-02-0.541D-02-0.476D-02 0.757D-02 0.622D-01
 Coeff:      0.192D+00 0.752D+00
 Gap=     0.146 Goal=   None    Shift=    0.000
 RMSDP=1.26D-07 MaxDP=7.78D-06 DE=-1.56D-09 OVMax= 2.77D-06

 Cycle  15  Pass 1  IDiag  1:
 RMSU=  4.21D-08    CP:  7.04D-01  1.14D+00  6.67D-01  1.18D+00  9.53D-01
                    CP:  1.04D+00  7.76D-01  9.07D-01  9.35D-01  9.84D-01
                    CP:  9.32D-01  8.65D-01  1.03D+00  8.38D-01
 E= -1507.18995535948     Delta-E=       -0.000000000075 Rises=F Damp=F
 DIIS: error= 6.39D-08 at cycle  15 NSaved=  15.
 NSaved=15 IEnMin=15 EnMin= -1507.18995535948     IErMin=15 ErrMin= 6.39D-08
 ErrMax= 6.39D-08 EMaxC= 1.00D-01 BMatC= 1.13D-11 BMatP= 9.34D-11
 IDIUse=1 WtCom= 1.00D+00 WtEn= 0.00D+00
 Coeff-Com: -0.899D-06-0.137D-05 0.399D-05 0.369D-04 0.502D-04 0.172D-04
 Coeff-Com: -0.213D-03-0.951D-03-0.232D-02-0.362D-02-0.440D-02 0.846D-02
 Coeff-Com:  0.620D-01 0.382D+00 0.559D+00
 Coeff:     -0.899D-06-0.137D-05 0.399D-05 0.369D-04 0.502D-04 0.172D-04
 Coeff:     -0.213D-03-0.951D-03-0.232D-02-0.362D-02-0.440D-02 0.846D-02
 Coeff:      0.620D-01 0.382D+00 0.559D+00
 Gap=     0.146 Goal=   None    Shift=    0.000
 RMSDP=3.82D-08 MaxDP=2.31D-06 DE=-7.50D-11 OVMax= 1.69D-06

 Cycle  16  Pass 1  IDiag  1:
 RMSU=  1.50D-08    CP:  7.04D-01  1.14D+00  6.67D-01  1.18D+00  9.53D-01
                    CP:  1.04D+00  7.76D-01  9.07D-01  9.35D-01  9.85D-01
                    CP:  9.35D-01  8.63D-01  1.02D+00  9.07D-01  8.63D-01
 E= -1507.18995535951     Delta-E=       -0.000000000027 Rises=F Damp=F
 DIIS: error= 2.83D-08 at cycle  16 NSaved=  16.
 NSaved=16 IEnMin=16 EnMin= -1507.18995535951     IErMin=16 ErrMin= 2.83D-08
 ErrMax= 2.83D-08 EMaxC= 1.00D-01 BMatC= 2.11D-12 BMatP= 1.13D-11
 IDIUse=1 WtCom= 1.00D+00 WtEn= 0.00D+00
 Coeff-Com: -0.479D-06-0.292D-06-0.127D-05 0.495D-05 0.132D-04 0.220D-04
 Coeff-Com:  0.153D-04-0.104D-03-0.449D-03-0.137D-02-0.398D-02-0.543D-02
 Coeff-Com:  0.387D-02 0.942D-01 0.334D+00 0.579D+00
 Coeff:     -0.479D-06-0.292D-06-0.127D-05 0.495D-05 0.132D-04 0.220D-04
 Coeff:      0.153D-04-0.104D-03-0.449D-03-0.137D-02-0.398D-02-0.543D-02
 Coeff:      0.387D-02 0.942D-01 0.334D+00 0.579D+00
 Gap=     0.146 Goal=   None    Shift=    0.000
 RMSDP=1.59D-08 MaxDP=1.49D-06 DE=-2.73D-11 OVMax= 3.96D-07

 Cycle  17  Pass 1  IDiag  1:
 RMSU=  5.03D-09    CP:  7.04D-01  1.14D+00  6.67D-01  1.18D+00  9.53D-01
                    CP:  1.04D+00  7.76D-01  9.07D-01  9.35D-01  9.85D-01
                    CP:  9.35D-01  8.66D-01  1.03D+00  9.00D-01  9.18D-01
                    CP:  7.98D-01
 E= -1507.18995535944     Delta-E=        0.000000000061 Rises=F Damp=F
 DIIS: error= 9.84D-09 at cycle  17 NSaved=  17.
 NSaved=17 IEnMin=16 EnMin= -1507.18995535951     IErMin=17 ErrMin= 9.84D-09
 ErrMax= 9.84D-09 EMaxC= 1.00D-01 BMatC= 1.88D-13 BMatP= 2.11D-12
 IDIUse=1 WtCom= 1.00D+00 WtEn= 0.00D+00
 Coeff-Com: -0.143D-06-0.123D-07-0.103D-05-0.109D-05 0.204D-05 0.105D-04
 Coeff-Com:  0.307D-04 0.415D-04 0.362D-06-0.387D-03-0.179D-02-0.389D-02
 Coeff-Com: -0.445D-02 0.124D-01 0.129D+00 0.324D+00 0.544D+00
 Coeff:     -0.143D-06-0.123D-07-0.103D-05-0.109D-05 0.204D-05 0.105D-04
 Coeff:      0.307D-04 0.415D-04 0.362D-06-0.387D-03-0.179D-02-0.389D-02
 Coeff:     -0.445D-02 0.124D-01 0.129D+00 0.324D+00 0.544D+00
 Gap=     0.146 Goal=   None    Shift=    0.000
 RMSDP=4.74D-09 MaxDP=5.03D-07 DE= 6.14D-11 OVMax= 1.07D-07

 Error on total polarization charges =  0.01455
 SCF Done:  E(RB3LYP) =  -1507.18995536     A.U. after   17 cycles
             Convg  =    0.4736D-08             -V/T =  2.0052
 KE= 1.499442727485D+03 PE=-6.805945330766D+03 EE= 2.171649765115D+03
 Leave Link  502 at Thu Aug 22 06:00:14 2019, MaxMem=  524288000 cpu:    5418.8
 (Enter /home/ubuntu/g09/l601.exe)
 Copying SCF densities to generalized density rwf, IOpCl= 0 IROHF=0.

 **********************************************************************

            Population analysis using the SCF density.

 **********************************************************************

 Alpha  occ. eigenvalues --  -89.13812 -24.77132 -24.77037 -24.76677 -19.21855
 Alpha  occ. eigenvalues --  -19.21782 -19.15751 -19.15278 -19.15261 -14.60621
 Alpha  occ. eigenvalues --  -14.55645 -14.53641 -10.46473 -10.32864 -10.29418
 Alpha  occ. eigenvalues --  -10.27585 -10.26291 -10.26143 -10.24824  -8.16418
 Alpha  occ. eigenvalues --   -6.12748  -6.12745  -6.12718  -1.34444  -1.26928
 Alpha  occ. eigenvalues --   -1.26200  -1.25602  -1.21490  -1.13203  -1.09824
 Alpha  occ. eigenvalues --   -1.00915  -0.99404  -0.96215  -0.89549  -0.83957
 Alpha  occ. eigenvalues --   -0.76945  -0.75374  -0.74510  -0.66605  -0.66204
 Alpha  occ. eigenvalues --   -0.62246  -0.62116  -0.62026  -0.58386  -0.57815
 Alpha  occ. eigenvalues --   -0.57135  -0.56909  -0.56505  -0.55125  -0.54567
 Alpha  occ. eigenvalues --   -0.53732  -0.50655  -0.49966  -0.49890  -0.49224
 Alpha  occ. eigenvalues --   -0.48048  -0.47988  -0.47020  -0.46100  -0.45868
 Alpha  occ. eigenvalues --   -0.43984  -0.43753  -0.43320  -0.42226  -0.35849
 Alpha  occ. eigenvalues --   -0.35680  -0.35308  -0.35045  -0.33498  -0.33382
 Alpha  occ. eigenvalues --   -0.33038  -0.32462  -0.32167  -0.31465  -0.28936
 Alpha virt. eigenvalues --   -0.14349  -0.12915  -0.12011  -0.05457  -0.02771
 Alpha virt. eigenvalues --   -0.01124   0.00361   0.00654   0.01871   0.02275
 Alpha virt. eigenvalues --    0.02472   0.02988   0.04299   0.04481   0.05035
 Alpha virt. eigenvalues --    0.05389   0.05784   0.06367   0.06744   0.07278
 Alpha virt. eigenvalues --    0.07663   0.07674   0.08162   0.08422   0.08701
 Alpha virt. eigenvalues --    0.08803   0.09154   0.09290   0.09612   0.10147
 Alpha virt. eigenvalues --    0.10291   0.11031   0.11345   0.11663   0.12177
 Alpha virt. eigenvalues --    0.12392   0.12858   0.13214   0.13582   0.14202
 Alpha virt. eigenvalues --    0.14738   0.15497   0.15608   0.16089   0.16759
 Alpha virt. eigenvalues --    0.17408   0.17628   0.17940   0.18114   0.18687
 Alpha virt. eigenvalues --    0.19051   0.19293   0.19624   0.19787   0.20154
 Alpha virt. eigenvalues --    0.20559   0.20830   0.21328   0.21773   0.22068
 Alpha virt. eigenvalues --    0.22375   0.22748   0.22999   0.23446   0.24032
 Alpha virt. eigenvalues --    0.24329   0.25015   0.25049   0.25396   0.25857
 Alpha virt. eigenvalues --    0.26047   0.26328   0.26490   0.26875   0.27154
 Alpha virt. eigenvalues --    0.27694   0.28074   0.28231   0.28404   0.28713
 Alpha virt. eigenvalues --    0.28958   0.29271   0.29572   0.30213   0.30532
 Alpha virt. eigenvalues --    0.30763   0.31056   0.31602   0.32257   0.32372
 Alpha virt. eigenvalues --    0.33113   0.33639   0.33938   0.34344   0.34850
 Alpha virt. eigenvalues --    0.35313   0.35680   0.36312   0.37236   0.38067
 Alpha virt. eigenvalues --    0.38441   0.39218   0.39604   0.40230   0.40706
 Alpha virt. eigenvalues --    0.40989   0.41153   0.41887   0.42409   0.42852
 Alpha virt. eigenvalues --    0.44048   0.44212   0.44790   0.45346   0.45711
 Alpha virt. eigenvalues --    0.46485   0.47544   0.48514   0.48686   0.50023
 Alpha virt. eigenvalues --    0.50269   0.52305   0.52985   0.53588   0.54615
 Alpha virt. eigenvalues --    0.55231   0.55483   0.55932   0.56330   0.56767
 Alpha virt. eigenvalues --    0.57104   0.57469   0.58523   0.59507   0.60114
 Alpha virt. eigenvalues --    0.60713   0.61112   0.62124   0.62960   0.63248
 Alpha virt. eigenvalues --    0.63907   0.64090   0.65124   0.65767   0.66758
 Alpha virt. eigenvalues --    0.68124   0.68475   0.69008   0.69152   0.70323
 Alpha virt. eigenvalues --    0.70922   0.71415   0.71925   0.72061   0.72375
 Alpha virt. eigenvalues --    0.73215   0.73557   0.74227   0.74696   0.75246
 Alpha virt. eigenvalues --    0.75909   0.77146   0.78631   0.79080   0.79716
 Alpha virt. eigenvalues --    0.81522   0.81922   0.82646   0.82798   0.84206
 Alpha virt. eigenvalues --    0.84997   0.85180   0.85908   0.86037   0.87531
 Alpha virt. eigenvalues --    0.87834   0.88887   0.89362   0.89724   0.90676
 Alpha virt. eigenvalues --    0.91794   0.92744   0.93417   0.95122   0.95734
 Alpha virt. eigenvalues --    0.96189   0.97625   0.98383   0.99190   1.00464
 Alpha virt. eigenvalues --    1.01441   1.01543   1.01856   1.03144   1.04460
 Alpha virt. eigenvalues --    1.04719   1.05356   1.05976   1.07288   1.07527
 Alpha virt. eigenvalues --    1.09052   1.10421   1.11653   1.12178   1.12655
 Alpha virt. eigenvalues --    1.13030   1.14162   1.14397   1.15422   1.15884
 Alpha virt. eigenvalues --    1.17012   1.18090   1.18605   1.18966   1.21222
 Alpha virt. eigenvalues --    1.21349   1.21976   1.22954   1.24766   1.25453
 Alpha virt. eigenvalues --    1.26030   1.26559   1.27575   1.27818   1.28263
 Alpha virt. eigenvalues --    1.29302   1.29388   1.30177   1.31548   1.31747
 Alpha virt. eigenvalues --    1.32521   1.33323   1.33494   1.33870   1.35275
 Alpha virt. eigenvalues --    1.35682   1.36937   1.38110   1.38171   1.39038
 Alpha virt. eigenvalues --    1.39555   1.39938   1.40907   1.41411   1.41752
 Alpha virt. eigenvalues --    1.42063   1.43262   1.44160   1.44507   1.45472
 Alpha virt. eigenvalues --    1.46053   1.47344   1.47922   1.49505   1.50030
 Alpha virt. eigenvalues --    1.51306   1.51660   1.53571   1.53904   1.55208
 Alpha virt. eigenvalues --    1.55903   1.56432   1.57884   1.59489   1.61226
 Alpha virt. eigenvalues --    1.61776   1.62553   1.63394   1.64257   1.65937
 Alpha virt. eigenvalues --    1.66529   1.66904   1.67332   1.68444   1.70047
 Alpha virt. eigenvalues --    1.70918   1.71934   1.72704   1.73548   1.74267
 Alpha virt. eigenvalues --    1.75766   1.76542   1.77504   1.78042   1.79575
 Alpha virt. eigenvalues --    1.80628   1.81570   1.83174   1.83553   1.84983
 Alpha virt. eigenvalues --    1.85836   1.88252   1.89313   1.90037   1.91594
 Alpha virt. eigenvalues --    1.93163   1.93958   1.96097   1.98615   1.99398
 Alpha virt. eigenvalues --    2.00545   2.02202   2.02736   2.03498   2.05279
 Alpha virt. eigenvalues --    2.06250   2.08218   2.08571   2.10142   2.10605
 Alpha virt. eigenvalues --    2.11609   2.12961   2.14144   2.14815   2.16861
 Alpha virt. eigenvalues --    2.17248   2.19256   2.20576   2.23292   2.24367
 Alpha virt. eigenvalues --    2.26283   2.28602   2.29038   2.32543   2.33494
 Alpha virt. eigenvalues --    2.35293   2.37236   2.38161   2.39596   2.40753
 Alpha virt. eigenvalues --    2.41810   2.43641   2.45958   2.48426   2.51079
 Alpha virt. eigenvalues --    2.53689   2.56530   2.63597   2.67667   2.73760
 Alpha virt. eigenvalues --    2.78332   2.81195   2.84221   2.87505   2.89874
 Alpha virt. eigenvalues --    2.93486   2.93986   2.98094   3.02612   3.06442
 Alpha virt. eigenvalues --    3.16875   3.19063   3.20016   3.23807   3.25988
 Alpha virt. eigenvalues --    3.26220   3.26667   3.27603   3.30751   3.31954
 Alpha virt. eigenvalues --    3.32784   3.34372   3.35048   3.35810   3.36323
 Alpha virt. eigenvalues --    3.37290   3.37543   3.38657   3.40488   3.40682
 Alpha virt. eigenvalues --    3.42704   3.43883   3.46172   3.47473   3.48420
 Alpha virt. eigenvalues --    3.50405   3.52412   3.53756   3.55401   3.58240
 Alpha virt. eigenvalues --    3.58572   3.63584   3.72459   3.77861   3.80719
 Alpha virt. eigenvalues --    4.09834   4.43953   4.47496   4.47815   4.48810
 Alpha virt. eigenvalues --    4.49995   4.51998   4.52906   4.57423   4.57597
 Alpha virt. eigenvalues --    4.58385   4.63146   4.63599   4.66933   4.72714
 Alpha virt. eigenvalues --    4.80397   4.81561
          Condensed to atoms (all electrons):
              1          2          3          4          5          6
     1  C   24.103259  -9.300361   3.296398  -6.154905   4.391294  -7.546922
     2  C   -9.300361  21.034943 -10.389940   3.254994  -5.297605   4.882609
     3  C    3.296398 -10.389940  26.910821  -9.500125   2.654751  -5.940192
     4  C   -6.154905   3.254994  -9.500125  19.786331  -4.026915   2.675613
     5  C    4.391294  -5.297605   2.654751  -4.026915  14.810364  -7.494790
     6  C   -7.546922   4.882609  -5.940192   2.675613  -7.494790  19.312849
     7  H   -3.400718   2.422350  -0.400163   0.363312  -0.905218   1.122952
     8  H    0.588502  -2.616014   1.201989  -0.188717   0.113655  -0.347644
     9  H    0.076865  -0.237840   1.382259  -2.194346   0.487168  -0.085981
    10  N   -0.886456   0.768931  -1.035206   0.911617  -0.349330   0.322887
    11  N   -0.161361   0.735896  -2.513215   0.086822   0.001870   0.060809
    12  S   -0.164228   0.064992  -0.125803   0.034386  -0.026511   0.038306
    13  C    0.004307  -0.010240  -0.024908  -0.003418   0.001126  -0.002209
    14  O    0.015289  -0.064161   0.061073  -0.031160   0.013518   0.005068
    15  O    0.004295   0.013198   0.015254  -0.001131   0.000925  -0.000949
    16  O   -0.062439   0.017205   0.096657   0.028137  -0.003901  -0.004073
    17  F   -0.006704  -0.004841   0.008657  -0.005163   0.001773   0.001192
    18  F    0.004379  -0.002686   0.001750   0.000104  -0.000205   0.001406
    19  F    0.003058   0.005457  -0.001067   0.000786  -0.000127   0.000196
    20  H    0.863146  -0.713168   0.164295   0.000090   1.693764  -2.732538
    21  N   -0.315440   0.367228  -0.301285  -0.001883  -1.190092   0.799251
    22  O   -0.086246  -0.071956   0.041164  -0.000684   0.405806  -0.128323
    23  O   -0.040680  -0.007565  -0.107647   0.089057   0.194879   0.014757
              7          8          9         10         11         12
     1  C   -3.400718   0.588502   0.076865  -0.886456  -0.161361  -0.164228
     2  C    2.422350  -2.616014  -0.237840   0.768931   0.735896   0.064992
     3  C   -0.400163   1.201989   1.382259  -1.035206  -2.513215  -0.125803
     4  C    0.363312  -0.188717  -2.194346   0.911617   0.086822   0.034386
     5  C   -0.905218   0.113655   0.487168  -0.349330   0.001870  -0.026511
     6  C    1.122952  -0.347644  -0.085981   0.322887   0.060809   0.038306
     7  H    3.061321  -0.284146   0.010489   0.040340   0.000072   0.011180
     8  H   -0.284146   3.641471  -0.007841  -0.243525  -0.002790  -0.098611
     9  H    0.010489  -0.007841   2.782722  -0.316171  -0.010393  -0.000267
    10  N    0.040340  -0.243525  -0.316171   8.478301  -1.095247  -0.076266
    11  N    0.000072  -0.002790  -0.010393  -1.095247  10.527192   0.101399
    12  S    0.011180  -0.098611  -0.000267  -0.076266   0.101399  14.716462
    13  C   -0.001717   0.014499  -0.000290  -0.007731  -0.001375   0.324312
    14  O    0.008698   0.010765  -0.001491   0.028548  -0.030659  -0.345805
    15  O    0.000215   0.005351  -0.000044   0.020115  -0.012072  -0.301118
    16  O    0.001114   0.028213   0.000677  -0.000844  -0.104231  -0.295000
    17  F    0.002790  -0.003943  -0.000031   0.003427   0.001464  -0.068776
    18  F    0.000258   0.000565   0.000008   0.000618   0.000194  -0.086949
    19  F    0.000431  -0.000352   0.000028   0.001240  -0.000253  -0.075705
    20  H   -0.247368  -0.000855  -0.018617   0.006218   0.002012  -0.000100
    21  N    0.025087  -0.000015  -0.015777  -0.018579  -0.011937   0.000346
    22  O   -0.000401  -0.001670  -0.011186   0.000700   0.000111  -0.000020
    23  O   -0.000332  -0.001804  -0.042939   0.009315   0.001297   0.000059
             13         14         15         16         17         18
     1  C    0.004307   0.015289   0.004295  -0.062439  -0.006704   0.004379
     2  C   -0.010240  -0.064161   0.013198   0.017205  -0.004841  -0.002686
     3  C   -0.024908   0.061073   0.015254   0.096657   0.008657   0.001750
     4  C   -0.003418  -0.031160  -0.001131   0.028137  -0.005163   0.000104
     5  C    0.001126   0.013518   0.000925  -0.003901   0.001773  -0.000205
     6  C   -0.002209   0.005068  -0.000949  -0.004073   0.001192   0.001406
     7  H   -0.001717   0.008698   0.000215   0.001114   0.002790   0.000258
     8  H    0.014499   0.010765   0.005351   0.028213  -0.003943   0.000565
     9  H   -0.000290  -0.001491  -0.000044   0.000677  -0.000031   0.000008
    10  N   -0.007731   0.028548   0.020115  -0.000844   0.003427   0.000618
    11  N   -0.001375  -0.030659  -0.012072  -0.104231   0.001464   0.000194
    12  S    0.324312  -0.345805  -0.301118  -0.295000  -0.068776  -0.086949
    13  C    4.725939  -0.030546  -0.040378  -0.058331   0.012386  -0.002034
    14  O   -0.030546   9.163402   0.086987   0.045869   0.010683   0.024190
    15  O   -0.040378   0.086987   9.053089   0.055795   0.015922   0.027087
    16  O   -0.058331   0.045869   0.055795   9.181529   0.010489   0.022272
    17  F    0.012386   0.010683   0.015922   0.010489   9.580840  -0.028910
    18  F   -0.002034   0.024190   0.027087   0.022272  -0.028910   9.518872
    19  F    0.019649   0.017824   0.020735   0.015520  -0.040469  -0.052410
    20  H    0.000085  -0.000447  -0.000008   0.000193  -0.000186   0.000018
    21  N   -0.000044   0.000417  -0.000003   0.000307  -0.000012   0.000000
    22  O    0.000001  -0.000038   0.000000  -0.000012  -0.000001   0.000000
    23  O   -0.000002  -0.000024   0.000000  -0.000014   0.000000   0.000000
             19         20         21         22         23
     1  C    0.003058   0.863146  -0.315440  -0.086246  -0.040680
     2  C    0.005457  -0.713168   0.367228  -0.071956  -0.007565
     3  C   -0.001067   0.164295  -0.301285   0.041164  -0.107647
     4  C    0.000786   0.000090  -0.001883  -0.000684   0.089057
     5  C   -0.000127   1.693764  -1.190092   0.405806   0.194879
     6  C    0.000196  -2.732538   0.799251  -0.128323   0.014757
     7  H    0.000431  -0.247368   0.025087  -0.000401  -0.000332
     8  H   -0.000352  -0.000855  -0.000015  -0.001670  -0.001804
     9  H    0.000028  -0.018617  -0.015777  -0.011186  -0.042939
    10  N    0.001240   0.006218  -0.018579   0.000700   0.009315
    11  N   -0.000253   0.002012  -0.011937   0.000111   0.001297
    12  S   -0.075705  -0.000100   0.000346  -0.000020   0.000059
    13  C    0.019649   0.000085  -0.000044   0.000001  -0.000002
    14  O    0.017824  -0.000447   0.000417  -0.000038  -0.000024
    15  O    0.020735  -0.000008  -0.000003   0.000000   0.000000
    16  O    0.015520   0.000193   0.000307  -0.000012  -0.000014
    17  F   -0.040469  -0.000186  -0.000012  -0.000001   0.000000
    18  F   -0.052410   0.000018   0.000000   0.000000   0.000000
    19  F    9.512701  -0.000005   0.000001   0.000000   0.000000
    20  H   -0.000005   2.999104  -0.164379  -0.020425  -0.012330
    21  N    0.000001  -0.164379   8.389311  -0.683862  -0.621883
    22  O    0.000000  -0.020425  -0.683862   9.293578  -0.022034
    23  O    0.000000  -0.012330  -0.621883  -0.022034   9.242309
 Mulliken atomic charges:
              1
     1  C    0.775665
     2  C    1.148573
     3  C    0.504481
     4  C    0.877198
     5  C    0.523799
     6  C    1.045727
     7  H   -0.830545
     8  H   -0.807084
     9  H   -0.797002
    10  N    0.437097
    11  N   -0.575607
    12  S    2.373716
    13  C    1.080920
    14  O   -0.988001
    15  O   -0.963265
    16  O   -0.975132
    17  F   -0.490589
    18  F   -0.428529
    19  F   -0.427238
    20  H   -0.818501
    21  N    0.743244
    22  O   -0.714504
    23  O   -0.694420
 Sum of Mulliken atomic charges =   0.00000
 Mulliken charges with hydrogens summed into heavy atoms:
              1
     1  C   -0.054880
     2  C    0.341488
     3  C    0.504481
     4  C    0.080195
     5  C    0.523799
     6  C    0.227226
    10  N    0.437097
    11  N   -0.575607
    12  S    2.373716
    13  C    1.080920
    14  O   -0.988001
    15  O   -0.963265
    16  O   -0.975132
    17  F   -0.490589
    18  F   -0.428529
    19  F   -0.427238
    21  N    0.743244
    22  O   -0.714504
    23  O   -0.694420
 Sum of Mulliken charges with hydrogens summed into heavy atoms =   0.00000
 Electronic spatial extent (au):  <R**2>=           7246.8240
 Charge=              0.0000 electrons
 Dipole moment (field-independent basis, Debye):
    X=            -11.5792    Y=             -1.6691    Z=             -0.4307  Tot=             11.7068
 Quadrupole moment (field-independent basis, Debye-Ang):
   XX=           -165.9359   YY=           -103.3276   ZZ=           -117.8637
   XY=            -10.4002   XZ=              8.5483   YZ=              2.4925
 Traceless Quadrupole moment (field-independent basis, Debye-Ang):
   XX=            -36.8935   YY=             25.7148   ZZ=             11.1787
   XY=            -10.4002   XZ=              8.5483   YZ=              2.4925
 Octapole moment (field-independent basis, Debye-Ang**2):
  XXX=            116.6519  YYY=            -17.5233  ZZZ=             17.5038  XYY=            -23.7749
  XXY=            -47.6041  XXZ=             -6.8103  XZZ=             -4.9606  YZZ=             -9.5240
  YYZ=             -3.9964  XYZ=             -0.2544
 Hexadecapole moment (field-independent basis, Debye-Ang**3):
 XXXX=          -9202.7242 YYYY=          -1052.1167 ZZZZ=           -395.8201 XXXY=           -229.0307
 XXXZ=            229.6408 YYYX=            -80.4146 YYYZ=              9.3715 ZZZX=             17.2834
 ZZZY=             -6.6333 XXYY=          -1469.8664 XXZZ=          -1294.6959 YYZZ=           -250.4434
 XXYZ=             10.5846 YYXZ=             22.0017 ZZXY=            -28.4637
 N-N= 1.627662882807D+03 E-N=-6.805945335526D+03  KE= 1.499442727485D+03
 No NMR shielding tensors so no spin-rotation constants.
 Leave Link  601 at Thu Aug 22 06:00:15 2019, MaxMem=  524288000 cpu:       2.4
 (Enter /home/ubuntu/g09/l701.exe)
 Compute integral first derivatives.
 ... and contract with generalized density number  0.
 D1PCM: C-PCM CHGder 1st derivatives, ID1Alg=3 FixD1E=F DoIter=F DoCFld=F I1PDM=0.
 GePol: Maximum number of non-zero 1st derivatives   =     221
 Leave Link  701 at Thu Aug 22 06:00:21 2019, MaxMem=  524288000 cpu:      43.9
 (Enter /home/ubuntu/g09/l702.exe)
 L702 exits ... SP integral derivatives will be done elsewhere.
 Leave Link  702 at Thu Aug 22 06:00:21 2019, MaxMem=  524288000 cpu:       0.1
 (Enter /home/ubuntu/g09/l703.exe)
 Compute integral first derivatives, UseDBF=F ICtDFT=           0.
 Integral derivatives from FoFDir, PRISM(SPDF).
 Calling FoFJK, ICntrl=      2127 FMM=F ISym2X=0 I1Cent= 0 IOpClX= 0 NMat=1 NMatS=1 NMatT=0.
 FoFCou: FMM=F IPFlag=           0 FMFlag=      100000 FMFlg1=         800
         NFxFlg=           0 DoJE=F BraDBF=F KetDBF=F FulRan=T
         Omega=  0.000000  0.000000  1.000000  0.000000  0.000000 ICntrl=    2127 IOpCl=  0
         NMat0=    1 NMatS0=    1 NMatT0=    0 NMatD0=    1 NMtDS0=    0 NMtDT0=    0
         I1Cent=           0 NGrid=           0.
 Symmetry not used in FoFCou.
 Leave Link  703 at Thu Aug 22 06:02:22 2019, MaxMem=  524288000 cpu:     845.4
 (Enter /home/ubuntu/g09/l716.exe)
 Dipole        =-4.55561801D+00-6.56668383D-01-1.69439081D-01
 -------------------------------------------------------------------
 Center     Atomic                   Forces (Hartrees/Bohr)
 Number     Number              X              Y              Z
 -------------------------------------------------------------------
      1        6           0.001971005   -0.000085033   -0.000009114
      2        6           0.000062291   -0.000328159   -0.000600938
      3        6          -0.003158503    0.003692620    0.000197047
      4        6          -0.001704429    0.000898433    0.000450553
      5        6           0.000847482    0.000102908   -0.000019515
      6        6          -0.001480585    0.000330196    0.000370643
      7        1          -0.000638438    0.000261150    0.000079001
      8        1          -0.005346324   -0.001706717    0.000944256
      9        1           0.001357238   -0.000016154   -0.000286669
     10        7           0.010141538    0.003222371    0.002534372
     11        7          -0.018480164   -0.001887697   -0.004485140
     12       16          -0.022386656   -0.006468723    0.010931448
     13        6          -0.006299646   -0.003027344   -0.000696186
     14        8           0.009813347    0.002215976   -0.000616844
     15        8           0.009795601    0.005093106   -0.002981719
     16        8           0.014738287   -0.005331330   -0.004426861
     17        9           0.004196570    0.003460385   -0.000927801
     18        9           0.002140811   -0.000854717   -0.001385277
     19        9           0.001838544    0.000818288    0.001554866
     20        1           0.001252804   -0.000286845   -0.000345103
     21        7           0.008532294    0.000207598   -0.001536441
     22        8          -0.003624121    0.000066671    0.000679626
     23        8          -0.003568946   -0.000376981    0.000575798
 -------------------------------------------------------------------
 Cartesian Forces:  Max     0.022386656 RMS     0.005264224
 Leave Link  716 at Thu Aug 22 06:02:22 2019, MaxMem=  524288000 cpu:       0.1
 (Enter /home/ubuntu/g09/l103.exe)

 GradGradGradGradGradGradGradGradGradGradGradGradGradGradGradGradGradGrad
 Berny optimization.
 Search for a local minimum.
 Step number   1 out of a maximum of  138
 All quantities printed in internal units (Hartrees-Bohrs-Radians)
 Second derivative matrix not updated -- first step.
 ITU=  0
     Eigenvalues ---    0.00000   0.00000   0.00000   0.00000   0.00000
     Eigenvalues ---    0.00000   0.00212   0.00284   0.00634   0.00758
     Eigenvalues ---    0.01222   0.01961   0.02273   0.03470   0.03555
     Eigenvalues ---    0.04022   0.04166   0.04758   0.06418   0.06690
     Eigenvalues ---    0.06943   0.07506   0.07710   0.07758   0.08142
     Eigenvalues ---    0.10372   0.10627   0.11715   0.12835   0.13141
     Eigenvalues ---    0.14107   0.14846   0.14919   0.17541   0.19688
     Eigenvalues ---    0.21234   0.25719   0.26397   0.29739   0.36775
     Eigenvalues ---    0.36952   0.41441   0.43856   0.47421   0.63789
     Eigenvalues ---    0.67846   0.87324   0.90669   0.95627   1.02114
     Eigenvalues ---    1.08078   1.19940   1.24856   1.38407   1.44005
     Eigenvalues ---    1.48215   1.55175   1.61036   1.68947   1.77675
     Eigenvalues ---    2.07483   2.56817   3.48765
 RFO step:  Lambda=-1.05388549D-02 EMin= 2.17312073D-17
 Linear search not attempted -- first point.
 Maximum step size (   0.300) exceeded in Quadratic search.
    -- Step size scaled by   0.367
 TrRot=  0.005346 -0.001516  0.000218  1.346617 -0.000524 -1.346876
 Variable       Old X    -DE/DX   Delta X   Delta X   Delta X     New X
                                 (Linear)    (Quad)   (Total)
    X1       -3.27250   0.00197   0.00000  -0.01599  -0.01128  -3.28377
    Y1       -3.03819  -0.00009   0.00000   0.00551   0.00553  -3.03266
    Z1       -1.33685  -0.00001   0.00000   0.00974   0.00802  -1.32883
    X2       -1.66644   0.00006   0.00000  -0.02997  -0.02474  -1.69117
    Y2       -0.95977  -0.00033   0.00000   0.01491   0.01440  -0.94538
    Z2       -1.10955  -0.00060   0.00000   0.00423   0.00377  -1.10579
    X3       -2.76679  -0.00316   0.00000  -0.04341  -0.03768  -2.80446
    Y3        1.32978   0.00369   0.00000   0.01389   0.01328   1.34306
    Z3       -0.33614   0.00020   0.00000  -0.00681  -0.00624  -0.34238
    X4       -5.34073  -0.00170   0.00000  -0.03940  -0.03365  -5.37438
    Y4        1.65149   0.00090   0.00000   0.00113   0.00092   1.65241
    Z4        0.18705   0.00045   0.00000  -0.00083  -0.00040   0.18665
    X5       -6.83765   0.00085   0.00000  -0.02516  -0.01994  -6.85759
    Y5       -0.48719   0.00010   0.00000  -0.00672  -0.00642  -0.49361
    Z5       -0.05818  -0.00002   0.00000   0.00465   0.00382  -0.05437
    X6       -5.85203  -0.00148   0.00000  -0.01652  -0.01181  -5.86384
    Y6       -2.82274   0.00033   0.00000  -0.00409  -0.00367  -2.82641
    Z6       -0.80807   0.00037   0.00000   0.00775   0.00584  -0.80223
    X7       -2.49264  -0.00064   0.00000  -0.00853  -0.00422  -2.49686
    Y7       -4.84677   0.00026   0.00000   0.00804   0.00816  -4.83861
    Z7       -1.93121   0.00008   0.00000   0.01228   0.00973  -1.92147
    X8        0.35678  -0.00535   0.00000  -0.03491  -0.02965   0.32713
    Y8       -1.00892  -0.00171   0.00000   0.01462   0.01381  -0.99512
    Z8       -1.54922   0.00094   0.00000   0.00393   0.00367  -1.54554
    X9       -6.14471   0.00136   0.00000  -0.03895  -0.03280  -6.17751
    Y9        3.44971  -0.00002   0.00000   0.00167   0.00137   3.45108
    Z9        0.76921  -0.00029   0.00000  -0.00566  -0.00440   0.76481
   X10       -1.18786   0.01014   0.00000  -0.08098  -0.07472  -1.26258
   Y10        3.42804   0.00322   0.00000   0.04179   0.04066   3.46869
   Z10       -0.07638   0.00253   0.00000  -0.03319  -0.03135  -0.10773
   X11        0.39029  -0.01848   0.00000  -0.13223  -0.12563   0.26466
   Y11        4.80147  -0.00189   0.00000   0.10108   0.09942   4.90090
   Z11        0.21337  -0.00449   0.00000  -0.05948  -0.05673   0.15664
   X12        5.20527  -0.02239   0.00000   0.06314   0.06887   5.27414
   Y12        1.28428  -0.00647   0.00000  -0.01229  -0.01493   1.26935
   Z12       -0.49447   0.01093   0.00000   0.01671   0.01819  -0.47627
   X13        6.19893  -0.00630   0.00000   0.03251   0.03726   6.23618
   Y13       -1.92737  -0.00303   0.00000  -0.02326  -0.02678  -1.95415
   Z13        0.76041  -0.00070   0.00000  -0.00643  -0.00649   0.75392
   X14        3.51631   0.00981   0.00000   0.07151   0.07734   3.59365
   Y14        0.63109   0.00222   0.00000   0.02742   0.02636   0.65745
   Z14       -2.70380  -0.00062   0.00000   0.00135   0.00232  -2.70148
   X15        7.59545   0.00980   0.00000   0.07587   0.08201   7.67747
   Y15        2.61672   0.00509   0.00000  -0.02594  -0.02891   2.58782
   Z15       -1.07962  -0.00298   0.00000   0.01682   0.01926  -1.06036
   X16        3.68071   0.01474   0.00000   0.10760   0.11334   3.79405
   Y16        2.32890  -0.00533   0.00000  -0.02188  -0.02528   2.30362
   Z16        1.71871  -0.00443   0.00000   0.04343   0.04526   1.76397
   X17        4.12471   0.00420   0.00000   0.02108   0.02541   4.15012
   Y17       -3.33865   0.00346   0.00000  -0.00198  -0.00523  -3.34389
   Z17        1.29267  -0.00093   0.00000  -0.01066  -0.01167   1.28099
   X18        7.57151   0.00214   0.00000   0.02599   0.03062   7.60213
   Y18       -3.16981  -0.00085   0.00000  -0.02479  -0.02778  -3.19759
   Z18       -0.97153  -0.00139   0.00000  -0.01181  -0.01234  -0.98387
   X19        7.56535   0.00184   0.00000   0.03277   0.03733   7.60268
   Y19       -1.69531   0.00082   0.00000  -0.03494  -0.03990  -1.73521
   Z19        2.87854   0.00155   0.00000  -0.00381  -0.00359   2.87495
   X20       -7.11943   0.00125   0.00000  -0.00567  -0.00137  -7.12080
   Y20       -4.43318  -0.00029   0.00000  -0.01140  -0.01057  -4.44376
   Z20       -0.97181  -0.00035   0.00000   0.00658   0.00370  -0.96811
   X21       -9.57611   0.00853   0.00000  -0.02235  -0.01713  -9.59325
   Y21       -0.25965   0.00021   0.00000  -0.01173  -0.01100  -0.27065
   Z21        0.48974  -0.00154   0.00000   0.00380   0.00277   0.49251
   X22      -10.86201  -0.00362   0.00000  -0.02550  -0.02075 -10.88277
   Y22       -2.16812   0.00007   0.00000  -0.01061  -0.00943  -2.17755
   Z22        0.25678   0.00068   0.00000   0.00676   0.00459   0.26137
   X23      -10.35536  -0.00357   0.00000  -0.03251  -0.02682 -10.38218
   Y23        1.82385  -0.00038   0.00000  -0.01457  -0.01397   1.80988
   Z23        1.13523   0.00058   0.00000   0.00232   0.00225   1.13749
         Item               Value     Threshold  Converged?
 Maximum Force            0.022387     0.000015     NO 
 RMS     Force            0.005264     0.000010     NO 
 Maximum Displacement     0.125629     0.000060     NO 
 RMS     Displacement     0.035955     0.000040     NO 
 Predicted change in Energy=-3.630322D-03
 GradGradGradGradGradGradGradGradGradGradGradGradGradGradGradGradGradGrad

 Leave Link  103 at Thu Aug 22 06:02:22 2019, MaxMem=  524288000 cpu:       0.2
 (Enter /home/ubuntu/g09/l202.exe)
                          Input orientation:                          
 ---------------------------------------------------------------------
 Center     Atomic      Atomic             Coordinates (Angstroms)
 Number     Number       Type             X           Y           Z
 ---------------------------------------------------------------------
      1          6           0       -1.737697   -1.604814   -0.703184
      2          6           0       -0.894931   -0.500272   -0.585157
      3          6           0       -1.484057    0.710715   -0.181180
      4          6           0       -2.843997    0.874417    0.098769
      5          6           0       -3.628880   -0.261210   -0.028769
      6          6           0       -3.103012   -1.495672   -0.424520
      7          1           0       -1.321282   -2.560484   -1.016800
      8          1           0        0.173112   -0.526593   -0.817865
      9          1           0       -3.268997    1.826233    0.404723
     10          7           0       -0.668128    1.835554   -0.057008
     11          7           0        0.140050    2.593442    0.082891
     12         16           0        2.790957    0.671710   -0.252033
     13          6           0        3.300047   -1.034094    0.398958
     14          8           0        1.901678    0.347907   -1.429560
     15          8           0        4.062740    1.369414   -0.561121
     16          8           0        2.007725    1.219023    0.933453
     17          9           0        2.196146   -1.769508    0.677873
     18          9           0        4.022871   -1.692091   -0.520642
     19          9           0        4.023162   -0.918236    1.521359
     20          1           0       -3.768165   -2.351535   -0.512303
     21          7           0       -5.076527   -0.143222    0.260624
     22          8           0       -5.758912   -1.152310    0.138310
     23          8           0       -5.494014    0.957746    0.601931
 ---------------------------------------------------------------------
                    Distance matrix (angstroms):
                    1          2          3          4          5
     1  C    0.000000
     2  C    1.394344   0.000000
     3  C    2.387152   1.405971   0.000000
     4  C    2.830833   2.481206   1.398072   0.000000
     5  C    2.415923   2.800214   2.359689   1.386346   0.000000
     6  C    1.397731   2.427395   2.747431   2.440951   1.398948
     7  H    1.088605   2.147688   3.380163   3.919400   3.404097
     8  H    2.197021   1.093418   2.163911   3.450506   3.892075
     9  H    3.917195   3.468238   2.184874   1.086364   2.162139
    10  N    3.660281   2.405507   1.395143   2.383791   3.628122
    11  N    4.665748   3.329946   2.500424   3.443811   4.729307
    12  S    5.088693   3.882046   4.275779   5.649500   6.491109
    13  C    5.188381   4.341807   5.125287   6.440636   6.985007
    14  O    4.193541   3.041947   3.626745   5.013425   5.737622
    15  O    6.520067   5.298567   5.598678   6.955825   7.880569
    16  O    4.967979   3.699671   3.700449   4.935043   5.906630
    17  F    4.172477   3.572249   4.520329   5.720904   6.058485
    18  F    5.764120   5.060571   6.017887   7.356936   7.799914
    19  F    6.213491   5.366539   5.990124   7.238456   7.835071
    20  H    2.171827   3.418765   3.834601   3.410903   2.150039
    21  N    3.770008   4.281188   3.718903   2.458856   1.480996
    22  O    4.133164   4.960531   4.674112   3.550481   2.314953
    23  O    4.730747   4.968557   4.093171   2.698649   2.315677
                    6          7          8          9         10
     6  C    0.000000
     7  H    2.158514   0.000000
     8  H    3.439015   2.531700   0.000000
     9  H    3.427864   5.005757   4.344954   0.000000
    10  N    4.142559   4.546753   2.620368   2.641553   0.000000
    11  N    5.243641   5.468800   3.247626   3.509101   1.116744
    12  S    6.282210   5.286063   2.934145   6.203812   3.654837
    13  C    6.472274   5.068621   3.393513   7.164763   4.918251
    14  O    5.427320   4.360800   2.031467   5.682070   3.271222
    15  O    7.718509   6.681275   4.334739   7.409177   4.780432
    16  O    5.944181   5.400968   3.078976   5.337795   2.919128
    17  F    5.419533   3.983700   2.806196   6.547653   4.662680
    18  F    7.129238   5.436935   4.033283   8.149003   5.887674
    19  F    7.409604   6.140221   4.521973   7.871123   5.664169
    20  H    1.087490   2.507073   4.354015   4.306257   5.229650
    21  N    2.488635   4.645086   5.372971   2.677066   4.842564
    22  O    2.736509   4.796852   6.041085   3.891320   5.906062
    23  O    3.576277   5.692972   6.027886   2.396636   4.949134
                   11         12         13         14         15
    11  N    0.000000
    12  S    3.291281   0.000000
    13  C    4.821254   1.895450   0.000000
    14  O    3.230057   1.510707   2.684928   0.000000
    15  O    4.159386   1.483158   2.698203   2.543198   0.000000
    16  O    2.469958   1.522623   2.651851   2.520698   2.545478
    17  F    4.859719   2.679192   1.355442   3.001904   3.856437
    18  F    5.814322   2.679052   1.342050   3.080127   3.062032
    19  F    5.429515   2.681638   1.340188   3.848602   3.093805
    20  H    6.330972   7.227021   7.247459   6.346295   8.670117
    21  N    5.893521   7.926173   8.424949   7.196754   9.299975
    22  O    6.987953   8.750981   9.063478   7.962003  10.164307
    23  O    5.889617   8.333776   9.019098   7.693836   9.636063
                   16         17         18         19         20
    16  O    0.000000
    17  F    3.005352   0.000000
    18  F    3.827504   2.186174   0.000000
    19  F    2.995914   2.184976   2.183717   0.000000
    20  H    6.942622   6.109688   7.818899   8.178931   0.000000
    21  N    7.245345   7.463958   9.263283   9.219243   2.680648
    22  O    8.159419   7.997188   9.818801   9.882135   2.413402
    23  O    7.513605   8.159795   9.942480   9.743783   3.895050
                   21         22         23
    21  N    0.000000
    22  O    1.224283   0.000000
    23  O    1.225936   2.176570   0.000000
 Symmetry turned off by external request.
 Stoichiometry    C7H4F3N3O5S
 Framework group  C1[X(C7H4F3N3O5S)]
 Deg. of freedom    63
 Full point group                 C1      NOp   1
 Rotational constants (GHZ):      0.8173981      0.1461776      0.1328197
 Leave Link  202 at Thu Aug 22 06:02:22 2019, MaxMem=  524288000 cpu:       0.0
 (Enter /home/ubuntu/g09/l301.exe)
 Standard basis: Aug-CC-pVDZ (5D, 7F)
 Ernie: Thresh=  0.10000D-02 Tol=  0.10000D-05 Strict=F.
 Ernie:  46 primitive shells out of 531 were deleted.
 Integral buffers will be    131072 words long.
 Raffenetti 2 integral format.
 Two-electron integral symmetry is turned off.
   477 basis functions,   899 primitive gaussians,   515 cartesian basis functions
    75 alpha electrons       75 beta electrons
       nuclear repulsion energy      1621.7625928450 Hartrees.
 IExCor=  402 DFT=T Ex+Corr=B3LYP ExCW=0 ScaHFX=  0.200000
 ScaDFX=  0.800000  0.720000  1.000000  0.810000 ScalE2=  1.000000  1.000000
 IRadAn=      5 IRanWt=     -1 IRanGd=            0 ICorTp=0
 NAtoms=   23 NActive=   23 NUniq=   23 SFac= 1.00D+00 NAtFMM=   50 NAOKFM=F Big=F
 ------------------------------------------------------------------------------
 Polarizable Continuum Model (PCM)
 =================================
 Model                : C-PCM.
 Atomic radii         : UFF (Universal Force Field).
 Polarization charges : Total charges.
 Charge compensation  : None.
 Solution method      : Matrix inversion.
 Cavity type          : Scaled VdW (van der Waals Surface) (Alpha=1.100).
 Cavity algorithm     : GePol (No added spheres)
                        Default sphere list used, NSphG=   23.
                        Lebedev-Laikov grids with approx.  5.0 points / Ang**2.
                        Smoothing algorithm: Karplus/York (Gamma=1.0000).
                        Polarization charges: spherical gaussians, with
                                              point-specific exponents (IZeta= 3).
                        Self-potential: point-specific (ISelfS= 7).
                        Self-field    : sphere-specific E.n sum rule (ISelfD= 2).
 1st derivatives      : Analytical E(r).r(x)/FMM algorithm (CHGder, D1EAlg=3).
                        Cavity 1st derivative terms included.
 Solvent              : Water, Eps=  78.355300 Eps(inf)=   1.777849
 ------------------------------------------------------------------------------
 GePol: Number of generator spheres                  =      23
 GePol: Total number of spheres                      =      23
 GePol: Number of exposed spheres                    =      23 (100.00%)
 GePol: Number of points                             =    2370
 GePol: Average weight of points                     =       0.13
 GePol: Minimum weight of points                     =   0.10D-08
 GePol: Maximum weight of points                     =    0.20577
 GePol: Number of points with low weight             =     115
 GePol: Fraction of low-weight points (<1% of avg)   =       4.85%
 GePol: Cavity surface area                          =    302.296 Ang**2
 GePol: Cavity volume                                =    315.814 Ang**3
 Leave Link  301 at Thu Aug 22 06:02:22 2019, MaxMem=  524288000 cpu:       0.4
 (Enter /home/ubuntu/g09/l302.exe)
 NPDir=0 NMtPBC=     1 NCelOv=     1 NCel=       1 NClECP=     1 NCelD=      1
         NCelK=      1 NCelE2=     1 NClLst=     1 CellRange=     0.0.
 One-electron integrals computed using PRISM.
 NBasis=   477 RedAO= T  NBF=   477
 NBsUse=   477 1.00D-06 NBFU=   477
 Precomputing XC quadrature grid using
 IXCGrd= 2 IRadAn=           5 IRanWt=          -1 IRanGd=           0 AccXCQ= 0.00D+00.
 NRdTot=    1980 NPtTot=      536848 NUsed=      551020 NTot=      551052
 NSgBfM=   511   511   511   511   511 NAtAll=    23    23.
 Leave Link  302 at Thu Aug 22 06:02:23 2019, MaxMem=  524288000 cpu:       5.8
 (Enter /home/ubuntu/g09/l303.exe)
 DipDrv:  MaxL=1.
 Leave Link  303 at Thu Aug 22 06:02:23 2019, MaxMem=  524288000 cpu:       0.6
 (Enter /home/ubuntu/g09/l401.exe)
 Initial guess read from the read-write file.
 B after Tr=     0.000000    0.000000    0.000000
         Rot=    1.000000    0.000000    0.000000    0.000000 Ang=   0.00 deg.
 Guess basis will be translated and rotated to current coordinates.
 Generating alternative initial guess.
 Harris functional with IExCor=  402 diagonalized for initial guess.
 ExpMin= 2.97D-02 ExpMax= 1.11D+05 ExpMxC= 1.07D+03 IAcc=3 IRadAn=         5 AccDes= 0.00D+00
 HarFok:  IExCor=  402 AccDes= 0.00D+00 IRadAn=         5 IDoV= 1
 ScaDFX=  1.000000  1.000000  1.000000  1.000000
 FoFCou: FMM=F IPFlag=           0 FMFlag=      100000 FMFlg1=           0
         NFxFlg=           0 DoJE=T BraDBF=F KetDBF=T FulRan=T
         Omega=  0.000000  0.000000  1.000000  0.000000  0.000000 ICntrl=     500 IOpCl=  0
         NMat0=    1 NMatS0=    1 NMatT0=    0 NMatD0=    1 NMtDS0=    0 NMtDT0=    0
         I1Cent=           4 NGrid=           0.
 Symmetry not used in FoFCou.
 Harris En= -1507.17352410303    
 Leave Link  401 at Thu Aug 22 06:02:30 2019, MaxMem=  524288000 cpu:      51.7
 (Enter /home/ubuntu/g09/l502.exe)
 Closed shell SCF:
 Requested convergence on RMS density matrix=1.00D-08 within 700 cycles.
 Requested convergence on MAX density matrix=1.00D-06.
 Requested convergence on             energy=1.00D-06.
 No special actions if energy rises.
 Using DIIS extrapolation, IDIIS=  1040.
 Two-electron integral symmetry not used.
       550800 words used for storage of precomputed grid.
 IEnd=     1847838 IEndB=     1847838 NGot=   524288000 MDV=   523197303
 LenX=   523197303 LenY=   522931563
 Fock matrices will be formed incrementally for  20 cycles.

 Cycle   1  Pass 1  IDiag  1:
 FoFCou: FMM=F IPFlag=           0 FMFlag=      100000 FMFlg1=           0
         NFxFlg=           0 DoJE=F BraDBF=F KetDBF=F FulRan=T
         Omega=  0.000000  0.000000  1.000000  0.000000  0.000000 ICntrl=       0 IOpCl=  0
         NMat0=    1 NMatS0=    1 NMatT0=    0 NMatD0=    1 NMtDS0=    0 NMtDT0=    0
         I1Cent=           0 NGrid=           0.
 Symmetry not used in FoFCou.
 E= -1507.18697846738    
 DIIS: error= 2.97D-03 at cycle   1 NSaved=   1.
 NSaved= 1 IEnMin= 1 EnMin= -1507.18697846738     IErMin= 1 ErrMin= 2.97D-03
 ErrMax= 2.97D-03 EMaxC= 1.00D-01 BMatC= 7.41D-03 BMatP= 7.41D-03
 IDIUse=3 WtCom= 9.70D-01 WtEn= 2.97D-02
 Coeff-Com:  0.100D+01
 Coeff-En:   0.100D+01
 Coeff:      0.100D+01
 Gap=     0.163 Goal=   None    Shift=    0.000
 GapD=    0.163 DampG=1.000 DampE=1.000 DampFc=1.0000 IDamp=-1.
 RMSDP=1.84D-03 MaxDP=1.55D-01              OVMax= 2.17D-02

 Cycle   2  Pass 1  IDiag  1:
 RMSU=  1.23D-03    CP:  1.01D+00
 E= -1507.19269165902     Delta-E=       -0.005713191636 Rises=F Damp=F
 DIIS: error= 2.85D-04 at cycle   2 NSaved=   2.
 NSaved= 2 IEnMin= 2 EnMin= -1507.19269165902     IErMin= 2 ErrMin= 2.85D-04
 ErrMax= 2.85D-04 EMaxC= 1.00D-01 BMatC= 1.07D-04 BMatP= 7.41D-03
 IDIUse=3 WtCom= 9.97D-01 WtEn= 2.85D-03
 Coeff-Com: -0.109D-01 0.101D+01
 Coeff-En:   0.000D+00 0.100D+01
 Coeff:     -0.108D-01 0.101D+01
 Gap=     0.138 Goal=   None    Shift=    0.000
 RMSDP=1.92D-04 MaxDP=1.06D-02 DE=-5.71D-03 OVMax= 4.41D-03

 Cycle   3  Pass 1  IDiag  1:
 RMSU=  1.35D-04    CP:  1.01D+00  1.00D+00
 E= -1507.19253606085     Delta-E=        0.000155598168 Rises=F Damp=F
 DIIS: error= 6.51D-04 at cycle   3 NSaved=   3.
 NSaved= 3 IEnMin= 2 EnMin= -1507.19269165902     IErMin= 2 ErrMin= 2.85D-04
 ErrMax= 6.51D-04 EMaxC= 1.00D-01 BMatC= 3.23D-04 BMatP= 1.07D-04
 IDIUse=3 WtCom= 2.82D-01 WtEn= 7.18D-01
 Coeff-Com: -0.171D-01 0.661D+00 0.356D+00
 Coeff-En:   0.000D+00 0.704D+00 0.296D+00
[...]
 0895,-0.00044821,-0.00023048,0.00002364,-0.00025381,0.00009217,0.00014
 320,-0.00001385,0.00019872,0.00007210,0.00012297,-0.00011798,-0.000062
 91,0.00005275,-0.00000867,-0.00000350,0.00179947,-0.00180144,-0.000840
 44,-0.00004119,-0.00001282,0.00001025,-0.00048972,-0.00032587,-0.00018
 057,-0.00005021,0.00045344,0.00001658,-0.07060768,-0.14046526,-0.11677
 506,0.00219834,0.00449765,0.00386458,0.08835656,0.13448793,-0.00006345
 ,0.00013467,0.00002259,-0.00066590,0.00023373,0.00109377,-0.00032961,-
 0.00004539,-0.00002670,-0.00031624,0.00009339,0.00014218,0.00000122,0.
 00021021,0.00005858,0.00010327,-0.00009336,-0.00011572,0.00005487,-0.0
 0000827,0.00000975,0.00337065,-0.00065023,-0.00286398,-0.00004768,-0.0
 0000915,-0.00000897,-0.00057272,-0.00038547,-0.00020290,-0.00018975,0.
 00050204,-0.00003104,-0.12734541,-0.11575791,-0.27666667,-0.00230420,-
 0.02875711,-0.00122773,0.14114188,0.14946915,0.29913648,-0.00060348,0.
 00006084,0.00017525,0.00008095,0.00028776,-0.00002071,-0.00003005,-0.0
 0040313,-0.00000859,0.00012181,0.00012618,-0.00005114,-0.00020716,0.00
 003006,0.00007459,0.00014320,-0.00022798,-0.00010686,0.00002511,0.0000
 0975,-0.00000685,0.00225917,0.00018007,0.00003167,-0.00000960,-0.00002
 393,0.00000243,0.00064837,0.00025746,0.00019071,0.00012844,-0.00062769
 ,-0.00003710,-0.31760456,-0.15510538,0.07652715,-0.00967253,0.00636191
 ,-0.00582328,-0.01389390,-0.01729878,0.00340698,0.34991380,-0.00034347
 ,0.00008631,0.00007516,-0.00015680,0.00023680,0.00022955,-0.00015888,-
 0.00020379,-0.00006147,-0.00009177,0.00009835,0.00006702,-0.00007053,0
 .00010626,0.00004832,0.00010669,-0.00014914,-0.00008905,0.00002512,-0.
 00000204,-0.00000092,0.00187837,-0.00019223,-0.00036242,-0.00002235,-0
 .00001700,0.00000327,-0.00016046,-0.00003898,-0.00004227,0.00009248,-0
 .00005013,0.00000362,-0.15415548,-0.17017676,0.05311403,-0.02557876,0.
 00816034,-0.00653721,-0.02292661,0.00017059,-0.00115182,0.18581453,0.1
 6349796,0.00001870,0.00001661,0.00004051,-0.00043420,0.00012389,0.0001
 7362,-0.00024519,0.00000448,-0.00000427,-0.00020911,0.00002147,0.00010
 772,0.00005364,0.00011847,0.00001968,0.00003569,-0.00002603,-0.0000349
 1,0.00002507,0.00000149,-0.00000122,0.00087020,-0.00032439,-0.00063070
 ,-0.00002514,0.00000018,0.00000398,-0.00047656,-0.00037792,-0.00016844
 ,0.00007268,0.00050047,0.00003879,0.07580167,0.05287426,-0.09326526,0.
 01599553,-0.00277469,0.00674435,-0.02197728,-0.01786439,0.00929464,-0.
 09246913,-0.05055530,0.08110278,-0.00095734,0.00000503,0.00012564,0.00
 023978,-0.00031295,-0.00082494,0.00106997,-0.00073629,0.00009989,0.000
 90009,0.00012630,-0.00040601,-0.00055858,-0.00036296,0.00005311,0.0000
 5627,-0.00031484,0.00001476,-0.00007275,-0.00006532,-0.00005446,-0.000
 75956,0.00109253,0.00126841,0.00006270,-0.00002386,-0.00001704,-0.0005
 3625,0.00285498,0.00001943,-0.00198935,-0.00085322,-0.00042707,-0.2036
 2371,0.10977463,0.12906436,-0.00137793,-0.00610551,0.02140812,0.012189
 41,-0.00654883,-0.00681615,-0.02074867,0.01024570,0.02612164,0.2191906
 1,-0.00015647,0.00025080,0.00014066,0.00021498,-0.00039462,-0.00059558
 ,-0.00046717,0.00026631,0.00003830,-0.00064738,0.00004831,0.00033170,0
 .00010028,0.00036323,0.00007899,0.00011583,-0.00011563,-0.00006124,0.0
 0004773,0.00004195,-0.00000500,0.00130890,-0.00026070,-0.00009368,-0.0
 0007673,-0.00000796,0.00001116,0.00067075,-0.00208625,-0.00022520,0.00
 085445,0.00042574,0.00042080,0.11015059,-0.15673456,-0.09994866,0.0061
 4343,0.00811312,-0.02507109,0.00866852,-0.00023148,-0.02151862,-0.0134
 5286,0.01429757,0.00536406,-0.12371018,0.15134727,-0.00030156,0.000104
 25,0.00015090,0.00006659,-0.00017538,-0.00024655,-0.00033919,0.0000097
 4,-0.00014472,-0.00045151,0.00003706,0.00022143,0.00006595,0.00030351,
 0.00006682,0.00012133,-0.00014820,-0.00009736,0.00003757,0.00002423,0.
 00000115,0.00182534,-0.00006568,-0.00051875,-0.00005019,-0.00000660,0.
 00000915,0.00017275,-0.00038233,-0.00036056,-0.00108349,0.00102325,-0.
 00005311,0.13312997,-0.10267803,-0.19923208,-0.00121943,0.00424453,-0.
 00178971,0.01612967,-0.02427212,-0.01729498,0.01342404,-0.00893456,0.0
 0163078,-0.15987208,0.13016411,0.21083413,-0.00000115,-0.00000455,-0.0
 0001809,0.00006394,0.00001153,-0.00005795,-0.00000476,0.00001929,0.000
 01855,-0.00002736,-0.00000315,0.00000413,0.00000604,0.00001460,0.00001
 142,0.00002303,0.00000842,0.00000275,-0.00000829,0.00000127,0.00000348
 ,-0.00009663,-0.00006186,0.00007651,0.00000021,-0.00000397,-0.00000119
 ,-0.00000242,-0.00007806,-0.00001001,-0.00002280,0.00007287,-0.0000022
 4,-0.00869070,0.00113554,-0.00218795,-0.14112596,-0.07851098,0.0437185
 5,0.00308548,0.00133010,0.00195155,0.00037420,-0.00284308,0.00194827,0
 .00379038,-0.00109727,-0.00159202,0.24025758,0.00014095,-0.00000225,-0
 .00005179,0.00008482,-0.00007516,-0.00005349,-0.00001082,0.00013243,-0
 .00001028,-0.00004524,-0.00003517,0.00001828,0.00005452,0.00000242,-0.
 00001607,-0.00002832,0.00005511,0.00002993,0.00000812,0.00001391,0.000
 00764,-0.00054982,-0.00007086,0.00012570,0.00000138,0.00000528,0.00000
 319,-0.00008806,-0.00014323,-0.00003893,-0.00005540,0.00018386,0.00001
 074,-0.03090538,0.00019854,-0.00248660,-0.07643032,-0.14681985,0.04796
 618,0.00624617,0.00144540,0.00527017,-0.00287111,-0.01186722,0.0079534
 8,0.00541212,-0.00302303,-0.00098251,0.12905006,0.15713967,-0.00010958
 ,0.00000408,-0.00001425,-0.00004080,0.00003302,0.00008853,0.00000909,-
 0.00007234,-0.00002101,0.00003328,0.00001904,-0.00001906,-0.00003637,-
 0.00000303,0.00001242,0.00002542,-0.00003681,-0.00000407,-0.00000829,-
 0.00000799,-0.00000225,0.00037023,0.00003075,-0.00007068,0.00000034,-0
 .00000260,-0.00000016,0.00002486,0.00010902,0.00003354,0.00005521,-0.0
 0013999,-0.00000865,0.01965231,0.00158560,0.00367453,0.04234083,0.0476
 8811,-0.08972975,-0.00243890,0.00023038,-0.00184747,0.00196648,0.00792
 305,-0.00488325,-0.00500353,0.00275761,0.00174309,-0.06716392,-0.04160
 633,0.09276856,-0.00014357,-0.00000317,0.00001780,-0.00001877,0.000060
 52,0.00002232,0.00005973,-0.00012284,-0.00001167,0.00008728,0.00001985
 ,-0.00003415,-0.00006579,-0.00002058,0.00000898,0.00003035,-0.00005413
 ,-0.00001160,-0.00000183,-0.00000513,-0.00000234,0.00039343,0.00009620
 ,0.00005791,0.00000535,-0.00000398,-0.00000211,0.00007720,0.00022342,0
 .00006537,0.00013908,-0.00029759,-0.00000639,-0.00699977,0.00027535,0.
 02158996,-0.14114857,0.07915265,0.04616233,-0.00089439,-0.00034905,-0.
 00444860,0.00503590,0.00330492,-0.00437006,-0.00593739,0.00849917,-0.0
 0113395,-0.05637917,0.00598485,0.03859573,0.18709334,0.00019236,0.0000
 0733,-0.00003721,0.00004386,-0.00008431,-0.00004117,-0.00007888,0.0001
 7510,0.00001698,-0.00012293,-0.00003262,0.00005065,0.00008796,0.000036
 05,-0.00001487,-0.00003460,0.00006761,0.00002511,0.00000298,0.00000874
 ,0.00000517,-0.00054487,-0.00013862,-0.00004791,-0.00000613,0.00000530
 ,0.00000274,-0.00010490,-0.00030880,-0.00009306,-0.00018701,0.00040233
 ,0.00000761,0.01280536,0.00088315,-0.02807388,0.07827282,-0.14232308,-
 0.04390667,0.00218780,0.00130868,0.00779093,-0.00336212,-0.00317271,0.
 00411264,0.00882715,-0.01156931,0.00122714,-0.00704534,0.02100664,0.00
 549709,-0.09641269,0.15061041,-0.00000461,-0.00000157,0.00000519,-0.00
 001364,-0.00000498,0.00002220,0.00000478,-0.00000090,-0.00000683,0.000
 00415,0.00000443,-0.00000322,-0.00000441,-0.00000256,0.00000320,-0.000
 00372,-0.00000499,-0.00000490,-0.00000191,-0.00000013,-0.00000462,0.00
 005013,0.00001834,-0.00001719,-0.00000039,-0.00000009,-0.00000141,-0.0
 0000331,0.00001015,0.00000323,0.00001417,-0.00001840,-0.00000200,-0.00
 085088,0.00179717,0.00136082,0.04761098,-0.04579128,-0.09428239,-0.000
 04575,0.00117531,0.00180415,-0.00098988,0.00023357,0.00060320,-0.00106
 720,0.00109910,0.00077885,0.04148524,-0.00221036,-0.01286696,-0.101689
 24,0.09131612,0.15248958,-0.00012881,0.00000690,0.00003640,-0.00005666
 ,0.00005398,0.00005013,-0.00002335,-0.00009535,-0.00002423,0.00000481,
 0.00002642,0.00000659,-0.00004562,0.00002281,0.00002244,0.00003851,-0.
 00005429,-0.00003339,0.00000310,-0.00000220,0.00000101,0.00060750,0.00
 003640,-0.00011552,-0.00000518,-0.00000427,0.00000017,0.00004087,0.000
 00992,0.00001012,0.00006969,-0.00006897,0.00000744,-0.00223845,-0.0170
 6087,-0.00797707,-0.10884614,-0.01640240,-0.07847693,-0.00431609,0.002
 81764,-0.00692704,0.00398131,0.00502575,-0.00071031,-0.00109688,0.0028
 7036,0.00110665,-0.04124238,-0.03598667,-0.02828195,0.01864837,0.00550
 394,0.01550528,0.13459316,0.00006517,-0.00000794,-0.00001439,0.0000316
 3,-0.00002784,-0.00003809,0.00002149,0.00005125,0.00001403,-0.00000857
 ,-0.00001420,-0.00000204,0.00002436,-0.00000692,-0.00000573,-0.0000131
 0,0.00003090,0.00000888,0.00000024,0.00000219,0.00000263,-0.00032045,-
 0.00003865,0.00007177,0.00000197,0.00000255,-0.00000073,-0.00004689,-0
 .00002005,-0.00000680,-0.00002934,0.00004766,-0.00000217,0.00296652,0.
 00856226,0.00521433,-0.01765314,-0.07379964,-0.02982341,0.00304634,-0.
 00081595,0.00465516,0.00023543,-0.00079714,0.00081533,0.00073164,-0.00
 079345,0.00046704,-0.04200038,-0.01814709,-0.02400927,-0.00034502,-0.0
 1688661,-0.04761894,0.05329779,0.10265950,-0.00021119,0.00001123,0.000
 06895,-0.00010807,0.00011166,0.00006501,-0.00003177,-0.00018668,-0.000
 01609,0.00001799,0.00005206,-0.00000740,-0.00007286,0.00002658,0.00004
 032,0.00005618,-0.00009112,-0.00005588,0.00000527,-0.00000655,-0.00000
 197,0.00100999,0.00006715,-0.00019240,-0.00000618,-0.00000809,-0.00000
 037,0.00002291,0.00005718,0.00001654,0.00014488,-0.00014326,0.00001058
 ,-0.00763891,-0.02848317,-0.01098744,-0.07844659,-0.02771650,-0.195145
 21,-0.00764029,0.00468649,-0.01129873,0.00371860,0.00603162,-0.0007776
 1,-0.00364996,0.00708808,0.00428580,-0.01818398,-0.01393120,0.01115045
 ,0.00519363,-0.03784273,-0.04988181,0.10580159,0.09027252,0.25272885,-
 0.00930578,-0.02271646,-0.00354131,-0.00427504,-0.00048709,0.00303864,
 -0.00034893,0.00102817,0.00035084,-0.00112186,0.00255072,0.00271680,0.
 01207742,0.01041116,0.00231231,-0.14751423,-0.13686149,-0.02052972,0.0
 0091114,0.00038938,-0.00121701,-0.00014781,-0.00093981,-0.00053047,0.0
 0067739,0.00063766,0.00000343,-0.00045469,-0.00046097,-0.00042608,0.00
 014498,0.00022979,0.00013467,0.00010350,0.00005554,0.00008445,0.000008
 31,-0.00002518,0.00000901,-0.00016455,-0.00001488,-0.00001578,-0.00003
 102,-0.00002038,-0.00000858,-0.00003797,-0.00002960,-0.00002830,0.0000
 0211,0.00000932,-0.00000503,-0.00000549,0.00000813,-0.00000056,-0.0000
 0757,0.00000459,-0.00001301,0.15240302,0.00282726,0.00672061,-0.001101
 16,0.00095646,0.00159736,-0.00228509,0.00085826,0.00064873,0.00003513,
 0.00213401,-0.00183962,-0.00312946,-0.01431213,-0.01459467,-0.00384338
 ,-0.13571251,-0.25350592,-0.03745217,0.00036648,0.00005921,0.00138474,
 0.00025042,0.00017590,0.00030762,-0.00068110,-0.00051391,0.00004555,-0
 .00023577,-0.00061590,0.00036110,0.00012460,0.00025856,-0.00007384,-0.
 00004973,0.00000145,0.00000711,-0.00000328,0.00001078,-0.00000951,0.00
 005466,0.00000310,-0.00000720,0.00001874,0.00000662,-0.00000086,0.0000
 3515,-0.00000828,-0.00000102,-0.00000049,-0.00000429,0.00000362,0.0000
 0513,-0.00000675,0.00000042,0.00000290,-0.00000231,0.00000566,0.146353
 41,0.26106479,0.00568379,0.00590190,0.00810306,0.00348839,-0.00188029,
 0.00566293,0.00034444,0.00005365,-0.00027582,0.00254524,-0.00325939,0.
 00357353,-0.00642795,-0.01052584,0.00503228,-0.02019135,-0.03721903,-0
 .05171422,-0.00126056,0.00138440,-0.00332211,-0.00011488,0.00063364,-0
 .00067771,-0.00046019,-0.00031586,-0.00010271,-0.00041105,0.00037571,-
 0.00121708,0.00013088,-0.00008751,0.00030055,-0.00004741,-0.00001834,-
 0.00000637,-0.00000198,0.00000864,-0.00000473,0.00005897,-0.00000117,0
 .00001295,0.00001612,0.00001051,-0.00000128,0.00003137,0.00001181,0.00
 000465,-0.00000094,-0.00000349,0.00000145,0.00000348,-0.00000465,0.000
 00102,0.00000274,-0.00000195,0.00000518,0.01789426,0.04345498,0.037219
 21,0.00812731,0.00261486,0.00094509,0.00071465,0.00024272,-0.00070574,
 0.00928086,-0.00287094,-0.00122997,-0.03673777,-0.01742700,0.00343938,
 -0.11351911,-0.00066375,0.00809195,-0.02613637,0.01847835,0.01351426,0
 .00048249,-0.00038046,-0.00016625,-0.00159999,0.00013077,0.00021603,0.
 00037649,0.00212846,-0.00065025,-0.00301746,-0.00698187,-0.00104256,0.
 00187705,0.00417445,0.00062386,-0.00142282,-0.00007293,0.00015150,-0.0
 0013050,0.00031288,-0.00028600,0.00115739,0.00006026,0.00000379,0.0004
 9749,0.00019518,-0.00009839,0.00114540,-0.00024424,-0.00009688,-0.0000
 0700,-0.00012009,0.00008458,0.00015214,-0.00019914,0.00000818,0.000105
 68,-0.00005264,0.00017550,-0.00030194,-0.00224466,-0.00187405,0.607051
 55,0.00323040,-0.00422524,-0.00534247,0.00007743,-0.00417612,-0.000866
 26,-0.00410800,-0.00380650,-0.00318588,-0.02424699,0.00869268,0.010242
 97,-0.00069511,-0.10231029,-0.00680929,0.02351451,0.01237242,-0.001629
 35,0.00138524,0.00039331,-0.00037020,-0.00007856,-0.00032048,0.0002617
 5,0.00017393,-0.00271075,0.00069573,-0.00233803,0.00086094,0.00005982,
 -0.00003176,-0.00099307,-0.00005837,-0.00000304,-0.00005650,-0.0001112
 9,-0.00000569,0.00000567,0.00001362,0.00007818,0.00002334,0.00002568,-
 0.00000181,0.00000803,0.00001704,-0.00006362,0.00006195,0.00003991,0.0
 0000235,-0.00000192,-0.00000105,-0.00000488,0.00000541,-0.00000136,0.0
 0000129,-0.00000170,0.00000015,-0.00000228,-0.00306553,0.00034036,0.05
 697210,0.84636566,0.00120669,-0.00518072,0.00614509,-0.00068838,-0.000
 88983,-0.00190803,-0.00173532,-0.00352840,0.00748811,0.00117330,0.0082
 6811,0.00153795,0.00802721,-0.00682561,-0.08639826,0.01527704,-0.00036
 061,-0.00502337,0.00046061,0.00010985,0.00028118,0.00015626,0.00020871
 ,-0.00096483,-0.00138647,0.00019201,-0.00449123,0.00068048,0.00134841,
 0.00290976,-0.00074750,-0.00126437,-0.00098008,0.00037578,0.00001584,-
 0.00005408,0.00003866,-0.00007640,0.00007932,-0.00029077,-0.00001692,0
 .00001172,-0.00012796,-0.00005036,0.00002691,-0.00030905,0.00006499,0.
 00002839,-0.00000091,0.00003106,-0.00002315,-0.00003918,0.00005185,-0.
 00000287,-0.00002791,0.00001204,-0.00004561,-0.00104521,0.00098827,-0.
 00353978,-0.08170773,0.20827620,0.32616215,-0.00075019,-0.00134302,-0.
 00043571,-0.00091112,-0.00058917,0.00012877,-0.00339041,-0.00187226,-0
 .00004143,-0.00341939,0.00595511,0.00377114,-0.03960421,-0.04813855,-0
 .00134590,-0.00208777,-0.00268182,-0.00024239,-0.00016450,0.00007338,0
 .00008587,0.00053532,-0.00007654,-0.00016109,0.00058927,0.00025188,0.0
 0007637,0.00023464,0.00284008,0.00076214,-0.00067071,-0.00190641,-0.00
 035864,0.00060913,0.00001034,-0.00010811,0.00005314,-0.00013444,0.0001
 2876,-0.00046908,-0.00001668,0.00001308,-0.00021256,-0.00007961,0.0000
 4703,-0.00051062,0.00013933,0.00005766,0.00000465,0.00005276,-0.000037
 08,-0.00006800,0.00008897,-0.00000385,-0.00004361,0.00002243,-0.000073
 76,-0.00310043,-0.00070849,0.00062107,-0.25150555,-0.18478739,-0.01937
 454,0.26003773,-0.00178081,0.00048907,0.00092268,0.00044833,0.00049454
 ,-0.00001146,-0.00101697,0.00033116,0.00081016,-0.00063463,0.00294561,
 0.00017709,-0.03376297,-0.00950472,-0.00151112,0.00656215,-0.00585629,
 -0.00417616,-0.00016423,0.00001277,0.00002470,0.00028422,0.00021486,-0
 .00002015,0.00109621,0.00101500,-0.00016506,-0.00011407,0.00033014,0.0
 0047460,-0.00000652,-0.00027671,-0.00016142,0.00022481,0.00000398,-0.0
 0002952,0.00001848,-0.00005475,0.00004558,-0.00018397,-0.00000781,0.00
 000078,-0.00007853,-0.00002880,0.00001594,-0.00017983,0.00004426,0.000
 01884,0.00000215,0.00002209,-0.00001422,-0.00002427,0.00003377,-0.0000
 0080,-0.00001671,0.00000951,-0.00002724,0.00083252,0.00255665,0.000646
 80,-0.18861474,-0.37680920,-0.05812885,0.23689390,0.49714014,-0.000643
 08,0.00078713,-0.00025677,0.00047560,0.00026480,0.00019624,0.00028055,
 0.00103604,-0.00084913,0.00140036,-0.00154656,0.00185513,0.00373941,0.
 00244547,0.01947337,0.00324617,-0.00168922,-0.00070136,0.00000433,-0.0
 0003826,0.00005033,-0.00003595,0.00008195,0.00008313,0.00040936,0.0000
 8020,0.00052437,-0.00035681,-0.00038544,-0.00091447,0.00025975,0.00035
 646,0.00029099,-0.00008006,-0.00000747,0.00000822,-0.00000653,0.000016
 17,-0.00001693,0.00006441,0.00000237,-0.00000173,0.00002828,0.00001242
 ,-0.00000508,0.00006209,-0.00001663,-0.00000430,-0.00000008,-0.0000065
 0,0.00000525,0.00000803,-0.00001122,0.00000075,0.00000658,-0.00000228,
 0.00001019,0.00118480,0.00106667,0.00034081,-0.02080770,-0.05931031,-0
 .09151918,0.02300865,0.10635477,0.05985020,-0.00307656,0.00128174,0.00
 092367,-0.00076618,0.00159402,0.00086853,-0.00089952,0.00059997,0.0002
 0717,-0.00233164,0.00183340,0.00159097,-0.02723312,0.04209704,0.028010
 89,-0.00477263,-0.00696045,-0.00034831,-0.00086407,-0.00007771,0.00012
 171,0.00056228,-0.00001293,-0.00012202,-0.00294126,0.00102006,0.001283
 76,0.00150294,0.00253867,0.00049083,-0.00074939,-0.00150751,-0.0002595
 4,0.00056011,0.00004546,-0.00003830,0.00005428,-0.00012136,0.00011275,
 -0.00047518,-0.00002882,-0.00000478,-0.00019622,-0.00008053,0.00003383
 ,-0.00043760,0.00009761,0.00003107,0.00000099,0.00004616,-0.00003291,-
 0.00005942,0.00007731,-0.00000355,-0.00004226,0.00001993,-0.00006997,0
 .00048946,-0.00003932,-0.00003038,-0.19658999,0.13093173,0.08008490,0.
 04484427,-0.01978453,-0.01224818,0.19342068,0.00105778,-0.00012840,0.0
 0015782,-0.00061427,0.00074107,0.00031408,0.00254745,0.00093030,-0.000
 05600,-0.00848324,-0.00566393,-0.00013860,0.02803940,-0.00758589,-0.01
 743480,0.00118918,0.00271573,-0.00042936,0.00030718,-0.00000147,0.0000
 2500,-0.00018432,0.00023391,0.00010069,-0.00014864,0.00219910,0.000748
 89,-0.00042921,-0.00142319,-0.00036953,0.00046053,0.00087887,0.0001576
 3,-0.00020276,-0.00000450,0.00003303,-0.00001979,0.00004114,-0.0000432
 1,0.00015366,0.00000537,-0.00000138,0.00007060,0.00002710,-0.00001623,
 0.00017220,-0.00003522,-0.00001719,0.00000095,-0.00001528,0.00001226,0
 .00002127,-0.00002772,0.00000174,0.00001564,-0.00000634,0.00002617,-0.
 00095228,0.00105342,0.00049514,0.13456243,-0.37031210,-0.14324527,-0.0
 0399381,-0.11310525,-0.04949055,-0.15356993,0.48948326,0.00084510,0.00
 007346,-0.00152628,0.00006552,-0.00025842,0.00011782,0.00094632,0.0004
 4959,-0.00089765,-0.00218300,-0.00292862,0.00056090,0.02293063,-0.0212
 1489,0.00563102,0.00253197,0.00187407,0.00278632,0.00026403,0.00013293
 ,-0.00033549,-0.00019610,0.00005092,0.00016825,0.00084746,0.00041513,0
 .00019479,-0.00059130,-0.00117297,-0.00037980,0.00037913,0.00071702,0.
 00016979,-0.00022528,-0.00001946,0.00002204,-0.00002035,0.00004725,-0.
 00004601,0.00018512,0.00001465,-0.00000020,0.00007921,0.00003325,-0.00
 001495,0.00017868,-0.00003567,-0.00001301,-0.00000117,-0.00001883,0.00
 001291,0.00002374,-0.00003067,0.00000202,0.00001722,-0.00000791,0.0000
 2864,-0.00036816,0.00024282,0.00060418,0.08141140,-0.14228740,-0.14972
 012,-0.00651802,-0.04524593,0.01157996,-0.10060214,0.20916968,0.131054
 88\\-0.00000055,0.00000176,-0.00000179,0.00000030,0.00000086,-0.000000
 17,0.00000144,0.00000106,-0.00000017,0.00000071,0.00000133,0.00000073,
 0.00000131,0.00000310,0.00000024,-0.00000226,0.00000377,-0.00000113,-0
 .00000092,0.00000081,-0.00000093,0.00000050,-0.00000037,-0.00000020,0.
 00000145,0.00000061,0.00000088,-0.00001272,-0.00001166,0.00000625,0.00
 001474,0.00001374,0.00000449,0.00000097,-0.00000625,0.00000171,0.00000
 063,-0.00000131,-0.00000174,-0.00000017,-0.00000110,-0.00000243,0.0000
 0196,-0.00000175,0.00000071,-0.00000174,-0.00000054,0.00000281,-0.0000
 0146,-0.00000469,-0.00000220,-0.00000187,-0.00000586,-0.00000198,-0.00
 000257,-0.00001080,-0.00000514,-0.00000090,0.00000204,-0.00000090,-0.0
 0000115,0.00000161,-0.00000014,0.00000008,0.00000620,-0.00000182,0.000
 00222,0.00000744,0.00000291\\\@


 THE WISE MAN HAS THE POWER TO REASON AWAY
 WHAT A FOOL BELIEVES.
                     - DOOBIE BROTHERS
 Job cpu time:  0 days 10 hours 59 minutes 47.0 seconds.
 File lengths (MBytes):  RWF=    613 Int=      0 D2E=      0 Chk=     21 Scr=      1
 Normal termination of Gaussian 09 at Fri Aug 23 04:48:39 2019.
