 Entering Gaussian System, Link 0=/home/ubuntu/g09/g09
 Input=N2-RB3LYP-aug-cc-pVDZ-T348-Water.gjf
 Output=N2-RB3LYP-aug-cc-pVDZ-T348-Water.log
 Initial command:
 /home/ubuntu/g09/l1.exe /home/ubuntu/g09/Gau-1538.inp -scrdir=/home/ubuntu/g09/
 Entering Link 1 = /home/ubuntu/g09/l1.exe PID=      1540.
  
 Copyright (c) 1988,1990,1992,1993,1995,1998,2003,2009,2010,
            Gaussian, Inc.  All Rights Reserved.
  
 This is part of the Gaussian(R) 09 program.  It is based on
 the Gaussian(R) 03 system (copyright 2003, Gaussian, Inc.),
 the Gaussian(R) 98 system (copyright 1998, Gaussian, Inc.),
 the Gaussian(R) 94 system (copyright 1995, Gaussian, Inc.),
 the Gaussian 92(TM) system (copyright 1992, Gaussian, Inc.),
 the Gaussian 90(TM) system (copyright 1990, Gaussian, Inc.),
 the Gaussian 88(TM) system (copyright 1988, Gaussian, Inc.),
 the Gaussian 86(TM) system (copyright 1986, Carnegie Mellon
 University), and the Gaussian 82(TM) system (copyright 1983,
 Carnegie Mellon University). Gaussian is a federally registered
 trademark of Gaussian, Inc.
  
 This software contains proprietary and confidential information,
 including trade secrets, belonging to Gaussian, Inc.
  
 This software is provided under written license and may be
 used, copied, transmitted, or stored only in accord with that
 written license.
  
 The following legend is applicable only to US Government
 contracts under FAR:
  
                    RESTRICTED RIGHTS LEGEND
  
 Use, reproduction and disclosure by the US Government is
 subject to restrictions as set forth in subparagraphs (a)
 and (c) of the Commercial Computer Software - Restricted
 Rights clause in FAR 52.227-19.
  
 Gaussian, Inc.
 340 Quinnipiac St., Bldg. 40, Wallingford CT 06492
  
  
 ---------------------------------------------------------------
 Warning -- This program may not be used in any manner that
 competes with the business of Gaussian, Inc. or will provide
 assistance to any competitor of Gaussian, Inc.  The licensee
 of this program is prohibited from giving any competitor of
 Gaussian, Inc. access to this program.  By using this program,
 the user acknowledges that Gaussian, Inc. is engaged in the
 business of creating and licensing software in the field of
 computational chemistry and represents and warrants to the
 licensee that it is not a competitor of Gaussian, Inc. and that
 it will not use this program in any manner prohibited above.
 ---------------------------------------------------------------
  

 Cite this work as:
 Gaussian 09, Revision B.01,
 M. J. Frisch, G. W. Trucks, H. B. Schlegel, G. E. Scuseria, 
 M. A. Robb, J. R. Cheeseman, G. Scalmani, V. Barone, B. Mennucci, 
 G. A. Petersson, H. Nakatsuji, M. Caricato, X. Li, H. P. Hratchian, 
 A. F. Izmaylov, J. Bloino, G. Zheng, J. L. Sonnenberg, M. Hada, 
 M. Ehara, K. Toyota, R. Fukuda, J. Hasegawa, M. Ishida, T. Nakajima, 
 Y. Honda, O. Kitao, H. Nakai, T. Vreven, J. A. Montgomery, Jr., 
 J. E. Peralta, F. Ogliaro, M. Bearpark, J. J. Heyd, E. Brothers, 
 K. N. Kudin, V. N. Staroverov, T. Keith, R. Kobayashi, J. Normand, 
 K. Raghavachari, A. Rendell, J. C. Burant, S. S. Iyengar, J. Tomasi, 
 M. Cossi, N. Rega, J. M. Millam, M. Klene, J. E. Knox, J. B. Cross, 
 V. Bakken, C. Adamo, J. Jaramillo, R. Gomperts, R. E. Stratmann, 
 O. Yazyev, A. J. Austin, R. Cammi, C. Pomelli, J. W. Ochterski, 
 R. L. Martin, K. Morokuma, V. G. Zakrzewski, G. A. Voth, 
 P. Salvador, J. J. Dannenberg, S. Dapprich, A. D. Daniels, 
 O. Farkas, J. B. Foresman, J. V. Ortiz, J. Cioslowski, 
 and D. J. Fox, Gaussian, Inc., Wallingford CT, 2010.
 
 ******************************************
 Gaussian 09:  EM64L-G09RevB.01 12-Aug-2010
                20-Aug-2019 
 ******************************************
 %mem=500MW
 %nproc=7
 Will use up to    7 processors via shared memory.
 ----------------------------------------------------------------------
 #p scrf=(cpcm,solvent=water) opt Temperature=348.15 int=(grid=ultrafin
 e) CPHF=(grid=fine) freq rb3lyp/aug-cc-pvdz
 ----------------------------------------------------------------------
 1/14=-1,18=20,19=15,26=3,38=1,112=348150/1,3;
 2/9=110,12=2,17=6,18=5,40=1/2;
 3/5=16,7=10,11=2,16=1,25=1,30=1,70=2101,71=1,72=1,74=-5,75=-5,116=1/1,2,3;
 4//1;
 5/5=2,38=5,53=1,96=4/2;
 6/7=2,8=2,9=2,10=2,28=1/1;
 7//1,2,3,16;
 1/14=-1,18=20,19=15/3(2);
 2/9=110/2;
 99//99;
 2/9=110/2;
 3/5=16,7=10,11=2,16=1,25=1,30=1,70=2105,71=1,72=1,74=-5,75=-5,116=1/1,2,3;
 4/5=5,16=3/1;
 5/5=2,38=5,53=1,96=4/2;
 7//1,2,3,16;
 1/14=-1,18=20,19=15/3(-5);
 2/9=110/2;
 6/7=2,8=2,9=2,10=2,19=2,28=1/1;
 99/9=1/99;
 Leave Link    1 at Tue Aug 20 17:32:45 2019, MaxMem=  524288000 cpu:       0.3
 (Enter /home/ubuntu/g09/l101.exe)
 -----------------------
 N2-RB3LYP-aug-cc-pVDZ--
 -----------------------
 Symbolic Z-matrix:
 Charge =  0 Multiplicity = 1
 N                     0.        0.        0.5522 
 N                     0.        0.       -0.5522 
 
 NAtoms=      2 NQM=      2 NQMF=      0 NMic=      0 NMicF=      0 NTot=      2.
                    Isotopes and Nuclear Properties:
 (Nuclear quadrupole moments (NQMom) in fm**2, nuclear magnetic moments (NMagM)
  in nuclear magnetons)

  Atom         1           2
 IAtWgt=          14          14
 AtmWgt=  14.0030740  14.0030740
 NucSpn=           2           2
 AtZEff=   0.0000000   0.0000000
 NQMom=    2.0440000   2.0440000
 NMagM=    0.4037610   0.4037610
 Leave Link  101 at Tue Aug 20 17:32:45 2019, MaxMem=  524288000 cpu:       0.4
 (Enter /home/ubuntu/g09/l103.exe)

 GradGradGradGradGradGradGradGradGradGradGradGradGradGradGradGradGradGrad
 Berny optimization.
 Initialization pass.
                           ----------------------------
                           !    Initial Parameters    !
                           ! (Angstroms and Degrees)  !
 --------------------------                            --------------------------
 ! Name  Definition              Value          Derivative Info.                !
 --------------------------------------------------------------------------------
 ! R1    R(1,2)                  1.1044         estimate D2E/DX2                !
 --------------------------------------------------------------------------------
 Trust Radius=3.00D-01 FncErr=1.00D-07 GrdErr=1.00D-06
 Number of steps in this run=     20 maximum allowed number of steps=    100.
 GradGradGradGradGradGradGradGradGradGradGradGradGradGradGradGradGradGrad

 Leave Link  103 at Tue Aug 20 17:32:45 2019, MaxMem=  524288000 cpu:       0.0
 (Enter /home/ubuntu/g09/l202.exe)
                          Input orientation:                          
 ---------------------------------------------------------------------
 Center     Atomic      Atomic             Coordinates (Angstroms)
 Number     Number       Type             X           Y           Z
 ---------------------------------------------------------------------
      1          7           0        0.000000    0.000000    0.552200
      2          7           0        0.000000    0.000000   -0.552200
 ---------------------------------------------------------------------
 Stoichiometry    N2
 Framework group  D*H[C*(N.N)]
 Deg. of freedom     1
 Full point group                 D*H     NOp   8
 Largest Abelian subgroup         D2H     NOp   8
 Largest concise Abelian subgroup C2      NOp   2
                         Standard orientation:                         
 ---------------------------------------------------------------------
 Center     Atomic      Atomic             Coordinates (Angstroms)
 Number     Number       Type             X           Y           Z
 ---------------------------------------------------------------------
      1          7           0        0.000000    0.000000    0.552200
      2          7           0        0.000000    0.000000   -0.552200
 ---------------------------------------------------------------------
 Rotational constants (GHZ):      0.0000000     59.1794619     59.1794619
 Leave Link  202 at Tue Aug 20 17:32:45 2019, MaxMem=  524288000 cpu:       0.0
 (Enter /home/ubuntu/g09/l301.exe)
 Standard basis: Aug-CC-pVDZ (5D, 7F)
 Ernie: Thresh=  0.10000D-02 Tol=  0.10000D-05 Strict=F.
 Ernie:  4 primitive shells out of 50 were deleted.
 There are    11 symmetry adapted basis functions of AG  symmetry.
 There are     2 symmetry adapted basis functions of B1G symmetry.
 There are     5 symmetry adapted basis functions of B2G symmetry.
 There are     5 symmetry adapted basis functions of B3G symmetry.
 There are     2 symmetry adapted basis functions of AU  symmetry.
 There are    11 symmetry adapted basis functions of B1U symmetry.
 There are     5 symmetry adapted basis functions of B2U symmetry.
 There are     5 symmetry adapted basis functions of B3U symmetry.
 Integral buffers will be    131072 words long.
 Raffenetti 2 integral format.
 Two-electron integral symmetry is turned on.
    46 basis functions,    86 primitive gaussians,    50 cartesian basis functions
     7 alpha electrons        7 beta electrons
       nuclear repulsion energy        23.4785251910 Hartrees.
 IExCor=  402 DFT=T Ex+Corr=B3LYP ExCW=0 ScaHFX=  0.200000
 ScaDFX=  0.800000  0.720000  1.000000  0.810000 ScalE2=  1.000000  1.000000
 IRadAn=      5 IRanWt=     -1 IRanGd=            0 ICorTp=0
 NAtoms=    2 NActive=    2 NUniq=    1 SFac= 4.00D+00 NAtFMM=   50 NAOKFM=F Big=F
 ------------------------------------------------------------------------------
 Polarizable Continuum Model (PCM)
 =================================
 Model                : C-PCM.
 Atomic radii         : UFF (Universal Force Field).
 Polarization charges : Total charges.
 Charge compensation  : None.
 Solution method      : Matrix inversion.
 Cavity type          : Scaled VdW (van der Waals Surface) (Alpha=1.100).
 Cavity algorithm     : GePol (No added spheres)
                        Default sphere list used, NSphG=    2.
                        Lebedev-Laikov grids with approx.  5.0 points / Ang**2.
                        Smoothing algorithm: Karplus/York (Gamma=1.0000).
                        Polarization charges: spherical gaussians, with
                                              point-specific exponents (IZeta= 3).
                        Self-potential: point-specific (ISelfS= 7).
                        Self-field    : sphere-specific E.n sum rule (ISelfD= 2).
 1st derivatives      : Analytical E(r).r(x)/FMM algorithm (CHGder, D1EAlg=3).
                        Cavity 1st derivative terms included.
 Solvent              : Water, Eps=  78.355300 Eps(inf)=   1.777849
 ------------------------------------------------------------------------------
 Spheres list:
 ISph  on   Nord    Re0     Alpha      Xe            Ye            Ze
    1   N      1    1.830   1.100      0.000000      0.000000      0.552200
    2   N      2    1.830   1.100      0.000000      0.000000     -0.552200
 ------------------------------------------------------------------------------
 GePol: Number of generator spheres                  =       2
 GePol: Total number of spheres                      =       2
 GePol: Number of exposed spheres                    =       2 (100.00%)
 GePol: Number of points                             =     426
 GePol: Average weight of points                     =       0.15
 GePol: Minimum weight of points                     =   0.24D-02
 GePol: Maximum weight of points                     =    0.18586
 GePol: Number of points with low weight             =       0
 GePol: Fraction of low-weight points (<1% of avg)   =       0.00%
 GePol: Cavity surface area                          =     64.896 Ang**2
 GePol: Cavity volume                                =     47.867 Ang**3
 Leave Link  301 at Tue Aug 20 17:32:45 2019, MaxMem=  524288000 cpu:       0.2
 (Enter /home/ubuntu/g09/l302.exe)
 NPDir=0 NMtPBC=     1 NCelOv=     1 NCel=       1 NClECP=     1 NCelD=      1
         NCelK=      1 NCelE2=     1 NClLst=     1 CellRange=     0.0.
 One-electron integrals computed using PRISM.
 One-electron integral symmetry used in STVInt
 NBasis=    46 RedAO= T  NBF=    11     2     5     5     2    11     5     5
 NBsUse=    46 1.00D-06 NBFU=    11     2     5     5     2    11     5     5
 Precomputing XC quadrature grid using
 IXCGrd= 2 IRadAn=           5 IRanWt=          -1 IRanGd=           0 AccXCQ= 0.00D+00.
 NRdTot=     166 NPtTot=       45020 NUsed=       46221 NTot=       46253
 NSgBfM=    50    50    50    50    50 NAtAll=     2     2.
 Leave Link  302 at Tue Aug 20 17:32:45 2019, MaxMem=  524288000 cpu:       1.0
 (Enter /home/ubuntu/g09/l303.exe)
 DipDrv:  MaxL=1.
 Leave Link  303 at Tue Aug 20 17:32:45 2019, MaxMem=  524288000 cpu:       0.2
 (Enter /home/ubuntu/g09/l401.exe)
 Harris functional with IExCor=  402 diagonalized for initial guess.
 ExpMin= 5.61D-02 ExpMax= 9.05D+03 ExpMxC= 3.09D+02 IAcc=3 IRadAn=         5 AccDes= 0.00D+00
 HarFok:  IExCor=  402 AccDes= 0.00D+00 IRadAn=         5 IDoV= 1
 ScaDFX=  1.000000  1.000000  1.000000  1.000000
 FoFCou: FMM=F IPFlag=           0 FMFlag=      100000 FMFlg1=           0
         NFxFlg=           0 DoJE=T BraDBF=F KetDBF=T FulRan=T
         Omega=  0.000000  0.000000  1.000000  0.000000  0.000000 ICntrl=     500 IOpCl=  0
         NMat0=    1 NMatS0=    1 NMatT0=    0 NMatD0=    1 NMtDS0=    0 NMtDT0=    0
         I1Cent=           4 NGrid=           0.
 Petite list used in FoFCou.
 Harris En= -109.511145427710    
 Initial guess orbital symmetries:
       Occupied  (SGG) (SGU) (SGG) (SGU) (PIU) (PIU) (SGG)
       Virtual   (PIG) (PIG) (SGG) (SGU) (PIU) (PIU) (SGG) (PIG)
                 (PIG) (SGU) (DLTG) (DLTG) (SGU) (SGG) (PIU) (PIU)
                 (DLTU) (DLTU) (PIG) (PIG) (SGU) (PIU) (PIU) (SGG)
                 (SGU) (PIG) (PIG) (SGG) (PIU) (PIU) (DLTG) (DLTG)
                 (DLTU) (DLTU) (SGG) (SGU) (PIG) (PIG) (SGU)
 The electronic state of the initial guess is 1-SGG.
 Leave Link  401 at Tue Aug 20 17:32:45 2019, MaxMem=  524288000 cpu:       1.0
 (Enter /home/ubuntu/g09/l502.exe)
 Closed shell SCF:
 Requested convergence on RMS density matrix=1.00D-08 within 128 cycles.
 Requested convergence on MAX density matrix=1.00D-06.
 Requested convergence on             energy=1.00D-06.
 No special actions if energy rises.
 Using DIIS extrapolation, IDIIS=  1040.
 Integral symmetry usage will be decided dynamically.
        46190 words used for storage of precomputed grid.
 Keep R1 ints in memory in canonical form, NReq=3991367.
 IEnd=       72726 IEndB=       72726 NGot=   524288000 MDV=   523420987
 LenX=   523420987 LenY=   523418046
 Symmetry not used in FoFDir.
 MinBra= 0 MaxBra= 2 Meth= 1.
 IRaf=       0 NMat=   1 IRICut=       1 DoRegI=T DoRafI=F ISym2E= 0 JSym2E=0.

 Cycle   1  Pass 1  IDiag  1:
 E= -109.540479718105    
 DIIS: error= 8.70D-03 at cycle   1 NSaved=   1.
 NSaved= 1 IEnMin= 1 EnMin= -109.540479718105     IErMin= 1 ErrMin= 8.70D-03
 ErrMax= 8.70D-03 EMaxC= 1.00D-01 BMatC= 3.53D-03 BMatP= 3.53D-03
 IDIUse=3 WtCom= 9.13D-01 WtEn= 8.70D-02
 Coeff-Com:  0.100D+01
 Coeff-En:   0.100D+01
 Coeff:      0.100D+01
 Gap=     0.399 Goal=   None    Shift=    0.000
 GapD=    0.399 DampG=1.000 DampE=1.000 DampFc=1.0000 IDamp=-1.
 RMSDP=2.26D-03 MaxDP=3.44D-02              OVMax= 2.14D-02

 Cycle   2  Pass 1  IDiag  1:
 E= -109.542571196449     Delta-E=       -0.002091478345 Rises=F Damp=F
 DIIS: error= 3.45D-03 at cycle   2 NSaved=   2.
 NSaved= 2 IEnMin= 2 EnMin= -109.542571196449     IErMin= 2 ErrMin= 3.45D-03
 ErrMax= 3.45D-03 EMaxC= 1.00D-01 BMatC= 6.24D-04 BMatP= 3.53D-03
 IDIUse=3 WtCom= 9.65D-01 WtEn= 3.45D-02
 Coeff-Com:  0.256D+00 0.744D+00
 Coeff-En:   0.000D+00 0.100D+01
 Coeff:      0.247D+00 0.753D+00
 Gap=     0.400 Goal=   None    Shift=    0.000
 RMSDP=8.86D-04 MaxDP=8.06D-03 DE=-2.09D-03 OVMax= 1.07D-02

 Cycle   3  Pass 1  IDiag  1:
 E= -109.543149809357     Delta-E=       -0.000578612908 Rises=F Damp=F
 DIIS: error= 1.11D-03 at cycle   3 NSaved=   3.
 NSaved= 3 IEnMin= 3 EnMin= -109.543149809357     IErMin= 3 ErrMin= 1.11D-03
 ErrMax= 1.11D-03 EMaxC= 1.00D-01 BMatC= 5.12D-05 BMatP= 6.24D-04
 IDIUse=3 WtCom= 9.89D-01 WtEn= 1.11D-02
 Coeff-Com: -0.300D-02 0.218D+00 0.785D+00
 Coeff-En:   0.000D+00 0.000D+00 0.100D+01
 Coeff:     -0.297D-02 0.216D+00 0.787D+00
 Gap=     0.399 Goal=   None    Shift=    0.000
 RMSDP=1.68D-04 MaxDP=1.90D-03 DE=-5.79D-04 OVMax= 2.28D-03

 Cycle   4  Pass 1  IDiag  1:
 E= -109.543201454007     Delta-E=       -0.000051644650 Rises=F Damp=F
 DIIS: error= 6.53D-05 at cycle   4 NSaved=   4.
 NSaved= 4 IEnMin= 4 EnMin= -109.543201454007     IErMin= 4 ErrMin= 6.53D-05
 ErrMax= 6.53D-05 EMaxC= 1.00D-01 BMatC= 1.20D-07 BMatP= 5.12D-05
 IDIUse=1 WtCom= 1.00D+00 WtEn= 0.00D+00
 Coeff-Com: -0.163D-02 0.429D-01 0.171D+00 0.787D+00
 Coeff:     -0.163D-02 0.429D-01 0.171D+00 0.787D+00
 Gap=     0.399 Goal=   None    Shift=    0.000
 RMSDP=5.15D-06 MaxDP=6.38D-05 DE=-5.16D-05 OVMax= 7.25D-05

 Cycle   5  Pass 1  IDiag  1:
 E= -109.543201540131     Delta-E=       -0.000000086124 Rises=F Damp=F
 DIIS: error= 2.68D-06 at cycle   5 NSaved=   5.
 NSaved= 5 IEnMin= 5 EnMin= -109.543201540131     IErMin= 5 ErrMin= 2.68D-06
 ErrMax= 2.68D-06 EMaxC= 1.00D-01 BMatC= 2.86D-10 BMatP= 1.20D-07
 IDIUse=1 WtCom= 1.00D+00 WtEn= 0.00D+00
 Coeff-Com: -0.290D-04-0.301D-02-0.905D-02-0.502D-02 0.102D+01
 Coeff:     -0.290D-04-0.301D-02-0.905D-02-0.502D-02 0.102D+01
 Gap=     0.399 Goal=   None    Shift=    0.000
 RMSDP=8.78D-07 MaxDP=1.04D-05 DE=-8.61D-08 OVMax= 1.45D-05

 Cycle   6  Pass 1  IDiag  1:
 E= -109.543201540658     Delta-E=       -0.000000000527 Rises=F Damp=F
 DIIS: error= 1.50D-07 at cycle   6 NSaved=   6.
 NSaved= 6 IEnMin= 6 EnMin= -109.543201540658     IErMin= 6 ErrMin= 1.50D-07
 ErrMax= 1.50D-07 EMaxC= 1.00D-01 BMatC= 5.24D-13 BMatP= 2.86D-10
 IDIUse=1 WtCom= 1.00D+00 WtEn= 0.00D+00
 Coeff-Com:  0.559D-05 0.940D-04 0.208D-03-0.129D-02-0.711D-01 0.107D+01
 Coeff:      0.559D-05 0.940D-04 0.208D-03-0.129D-02-0.711D-01 0.107D+01
 Gap=     0.399 Goal=   None    Shift=    0.000
 RMSDP=7.87D-08 MaxDP=1.02D-06 DE=-5.27D-10 OVMax= 7.54D-07

 Cycle   7  Pass 1  IDiag  1:
 E= -109.543201540659     Delta-E=       -0.000000000001 Rises=F Damp=F
 DIIS: error= 5.99D-09 at cycle   7 NSaved=   7.
 NSaved= 7 IEnMin= 7 EnMin= -109.543201540659     IErMin= 7 ErrMin= 5.99D-09
 ErrMax= 5.99D-09 EMaxC= 1.00D-01 BMatC= 1.06D-15 BMatP= 5.24D-13
 IDIUse=1 WtCom= 1.00D+00 WtEn= 0.00D+00
 Coeff-Com: -0.278D-06-0.321D-05-0.759D-05 0.135D-03 0.343D-02-0.696D-01
 Coeff-Com:  0.107D+01
 Coeff:     -0.278D-06-0.321D-05-0.759D-05 0.135D-03 0.343D-02-0.696D-01
 Coeff:      0.107D+01
 Gap=     0.399 Goal=   None    Shift=    0.000
 RMSDP=3.12D-09 MaxDP=3.33D-08 DE=-1.42D-12 OVMax= 2.30D-08

 Error on total polarization charges =  0.00569
 SCF Done:  E(RB3LYP) =  -109.543201541     A.U. after    7 cycles
             Convg  =    0.3117D-08             -V/T =  2.0068
 KE= 1.088078311624D+02 PE=-3.029276056353D+02 EE= 6.109804774124D+01
 Leave Link  502 at Tue Aug 20 17:32:46 2019, MaxMem=  524288000 cpu:       4.6
 (Enter /home/ubuntu/g09/l601.exe)
 Copying SCF densities to generalized density rwf, IOpCl= 0 IROHF=0.

 **********************************************************************

            Population analysis using the SCF density.

 **********************************************************************

 Orbital symmetries:
       Occupied  (SGG) (SGU) (SGG) (SGU) (PIU) (PIU) (SGG)
       Virtual   (PIG) (PIG) (SGU) (SGG) (PIU) (PIU) (SGG) (PIG)
                 (PIG) (SGU) (DLTG) (DLTG) (SGU) (SGG) (PIU) (PIU)
                 (DLTU) (DLTU) (PIG) (PIG) (SGU) (PIU) (PIU) (SGG)
                 (SGU) (PIG) (PIG) (SGG) (PIU) (PIU) (DLTG) (DLTG)
                 (DLTU) (DLTU) (SGG) (SGU) (PIG) (PIG) (SGU)
 The electronic state is 1-SGG.
 Alpha  occ. eigenvalues --  -14.44783 -14.44631  -1.13214  -0.56150  -0.46900
 Alpha  occ. eigenvalues --   -0.46900  -0.43693
 Alpha virt. eigenvalues --   -0.03756  -0.03756   0.05527   0.06283   0.08279
 Alpha virt. eigenvalues --    0.08279   0.12638   0.15470   0.15470   0.25258
 Alpha virt. eigenvalues --    0.43509   0.43510   0.51614   0.54870   0.63743
 Alpha virt. eigenvalues --    0.63743   0.70486   0.70486   0.77751   0.77751
 Alpha virt. eigenvalues --    0.79849   0.83354   0.83354   0.91719   1.01456
 Alpha virt. eigenvalues --    1.15754   1.15754   1.65786   1.91998   1.91998
 Alpha virt. eigenvalues --    1.95842   1.95842   2.32785   2.32785   2.59939
 Alpha virt. eigenvalues --    2.73329   2.77794   2.77794   2.93024
          Condensed to atoms (all electrons):
              1          2
     1  N    7.279735  -0.279735
     2  N   -0.279735   7.279735
 Mulliken atomic charges:
              1
     1  N    0.000000
     2  N    0.000000
 Sum of Mulliken atomic charges =   0.00000
 Mulliken charges with hydrogens summed into heavy atoms:
              1
     1  N    0.000000
     2  N    0.000000
 Sum of Mulliken charges with hydrogens summed into heavy atoms =   0.00000
 Electronic spatial extent (au):  <R**2>=             39.5066
 Charge=              0.0000 electrons
 Dipole moment (field-independent basis, Debye):
    X=              0.0000    Y=              0.0000    Z=              0.0000  Tot=              0.0000
 Quadrupole moment (field-independent basis, Debye-Ang):
   XX=            -10.3695   YY=            -10.3695   ZZ=            -11.8941
   XY=              0.0000   XZ=              0.0000   YZ=              0.0000
 Traceless Quadrupole moment (field-independent basis, Debye-Ang):
   XX=              0.5082   YY=              0.5082   ZZ=             -1.0164
   XY=              0.0000   XZ=              0.0000   YZ=              0.0000
 Octapole moment (field-independent basis, Debye-Ang**2):
  XXX=              0.0000  YYY=              0.0000  ZZZ=              0.0000  XYY=              0.0000
  XXY=              0.0000  XXZ=              0.0000  XZZ=              0.0000  YZZ=              0.0000
  YYZ=              0.0000  XYZ=              0.0000
 Hexadecapole moment (field-independent basis, Debye-Ang**3):
 XXXX=             -9.4766 YYYY=             -9.4766 ZZZZ=            -32.9008 XXXY=              0.0000
 XXXZ=              0.0000 YYYX=              0.0000 YYYZ=              0.0000 ZZZX=              0.0000
 ZZZY=              0.0000 XXYY=             -3.1589 XXZZ=             -6.6443 YYZZ=             -6.6443
 XXYZ=              0.0000 YYXZ=              0.0000 ZZXY=              0.0000
 N-N= 2.347852519097D+01 E-N=-3.029276054833D+02  KE= 1.088078311624D+02
 Symmetry AG   KE= 5.320567970979D+01
 Symmetry B1G  KE= 1.035205258155D-34
 Symmetry B2G  KE= 1.179873763112D-31
 Symmetry B3G  KE= 1.487090403819D-31
 Symmetry AU   KE= 6.072413438875D-34
 Symmetry B1U  KE= 4.878170849256D+01
 Symmetry B2U  KE= 3.410221480045D+00
 Symmetry B3U  KE= 3.410221480045D+00
 No NMR shielding tensors so no spin-rotation constants.
 Leave Link  601 at Tue Aug 20 17:32:46 2019, MaxMem=  524288000 cpu:       1.0
 (Enter /home/ubuntu/g09/l701.exe)
 Compute integral first derivatives.
 ... and contract with generalized density number  0.
 D1PCM: C-PCM CHGder 1st derivatives, ID1Alg=3 FixD1E=F DoIter=F DoCFld=F I1PDM=0.
 GePol: Maximum number of non-zero 1st derivatives   =     245
 Leave Link  701 at Tue Aug 20 17:32:46 2019, MaxMem=  524288000 cpu:       1.6
 (Enter /home/ubuntu/g09/l702.exe)
 L702 exits ... SP integral derivatives will be done elsewhere.
 Leave Link  702 at Tue Aug 20 17:32:46 2019, MaxMem=  524288000 cpu:       0.1
 (Enter /home/ubuntu/g09/l703.exe)
 Compute integral first derivatives, UseDBF=F ICtDFT=           0.
 Integral derivatives from FoFDir, PRISM(SPDF).
 Calling FoFJK, ICntrl=      2127 FMM=F ISym2X=1 I1Cent= 0 IOpClX= 0 NMat=1 NMatS=1 NMatT=0.
 FoFCou: FMM=F IPFlag=           0 FMFlag=      100000 FMFlg1=         800
         NFxFlg=           0 DoJE=F BraDBF=F KetDBF=F FulRan=T
         Omega=  0.000000  0.000000  1.000000  0.000000  0.000000 ICntrl=    2127 IOpCl=  0
         NMat0=    1 NMatS0=    1 NMatT0=    0 NMatD0=    1 NMtDS0=    0 NMtDT0=    0
         I1Cent=           0 NGrid=           0.
 Petite list used in FoFCou.
 Leave Link  703 at Tue Aug 20 17:32:46 2019, MaxMem=  524288000 cpu:       1.0
 (Enter /home/ubuntu/g09/l716.exe)
 Dipole        =-1.18329136D-30-9.62964972D-34 0.00000000D+00
 ***** Axes restored to original set *****
 -------------------------------------------------------------------
 Center     Atomic                   Forces (Hartrees/Bohr)
 Number     Number              X              Y              Z
 -------------------------------------------------------------------
      1        7           0.000000000    0.000000000   -0.000817934
      2        7           0.000000000    0.000000000    0.000817934
 -------------------------------------------------------------------
 Cartesian Forces:  Max     0.000817934 RMS     0.000472234
 Leave Link  716 at Tue Aug 20 17:32:46 2019, MaxMem=  524288000 cpu:       0.1
 (Enter /home/ubuntu/g09/l103.exe)

 GradGradGradGradGradGradGradGradGradGradGradGradGradGradGradGradGradGrad
 Berny optimization.
 Internal  Forces:  Max     0.000817934 RMS     0.000817934
 Search for a local minimum.
 Step number   1 out of a maximum of   20
 All quantities printed in internal units (Hartrees-Bohrs-Radians)
 RMS Force = .81793D-03 SwitMx=.10000D-02 MixMth= 2
 Mixed Optimization -- En-DIIS/RFO-DIIS
 Second derivative matrix not updated -- first step.
 The second derivative matrix:
                          R1
           R1           1.72357
 ITU=  0
     Eigenvalues ---    1.72357
 RFO step:  Lambda=-3.88157506D-07 EMin= 1.72356760D+00
 Linear search not attempted -- first point.
 Iteration  1 RMS(Cart)=  0.00033556 RMS(Int)=  0.00000000
 Iteration  2 RMS(Cart)=  0.00000000 RMS(Int)=  0.00000000
 ClnCor:  largest displacement from symmetrization is 1.45D-20 for atom     2.
 Variable       Old X    -DE/DX   Delta X   Delta X   Delta X     New X
                                 (Linear)    (Quad)   (Total)
    R1        2.08701  -0.00082   0.00000  -0.00047  -0.00047   2.08654
         Item               Value     Threshold  Converged?
 Maximum Force            0.000818     0.000450     NO 
 RMS     Force            0.000818     0.000300     NO 
 Maximum Displacement     0.000237     0.001800     YES
 RMS     Displacement     0.000336     0.001200     YES
 Predicted change in Energy=-1.940788D-07
 GradGradGradGradGradGradGradGradGradGradGradGradGradGradGradGradGradGrad

 Leave Link  103 at Tue Aug 20 17:32:46 2019, MaxMem=  524288000 cpu:       0.0
 (Enter /home/ubuntu/g09/l202.exe)
                          Input orientation:                          
 ---------------------------------------------------------------------
 Center     Atomic      Atomic             Coordinates (Angstroms)
 Number     Number       Type             X           Y           Z
 ---------------------------------------------------------------------
      1          7           0        0.000000    0.000000    0.552074
      2          7           0        0.000000    0.000000   -0.552074
 ---------------------------------------------------------------------
 Stoichiometry    N2
 Framework group  D*H[C*(N.N)]
 Deg. of freedom     1
 Full point group                 D*H     NOp   8
 Largest Abelian subgroup         D2H     NOp   8
 Largest concise Abelian subgroup C2      NOp   2
                         Standard orientation:                         
 ---------------------------------------------------------------------
 Center     Atomic      Atomic             Coordinates (Angstroms)
 Number     Number       Type             X           Y           Z
 ---------------------------------------------------------------------
      1          7           0        0.000000    0.000000    0.552074
      2          7           0        0.000000    0.000000   -0.552074
 ---------------------------------------------------------------------
 Rotational constants (GHZ):      0.0000000     59.2063843     59.2063843
 Leave Link  202 at Tue Aug 20 17:32:46 2019, MaxMem=  524288000 cpu:       0.0
 (Enter /home/ubuntu/g09/l301.exe)
 Standard basis: Aug-CC-pVDZ (5D, 7F)
 Ernie: Thresh=  0.10000D-02 Tol=  0.10000D-05 Strict=F.
 Ernie:  4 primitive shells out of 50 were deleted.
 There are    11 symmetry adapted basis functions of AG  symmetry.
 There are     2 symmetry adapted basis functions of B1G symmetry.
 There are     5 symmetry adapted basis functions of B2G symmetry.
 There are     5 symmetry adapted basis functions of B3G symmetry.
 There are     2 symmetry adapted basis functions of AU  symmetry.
 There are    11 symmetry adapted basis functions of B1U symmetry.
 There are     5 symmetry adapted basis functions of B2U symmetry.
 There are     5 symmetry adapted basis functions of B3U symmetry.
 Integral buffers will be    131072 words long.
 Raffenetti 2 integral format.
 Two-electron integral symmetry is turned on.
    46 basis functions,    86 primitive gaussians,    50 cartesian basis functions
     7 alpha electrons        7 beta electrons
       nuclear repulsion energy        23.4838651029 Hartrees.
 IExCor=  402 DFT=T Ex+Corr=B3LYP ExCW=0 ScaHFX=  0.200000
 ScaDFX=  0.800000  0.720000  1.000000  0.810000 ScalE2=  1.000000  1.000000
 IRadAn=      5 IRanWt=     -1 IRanGd=            0 ICorTp=0
 NAtoms=    2 NActive=    2 NUniq=    1 SFac= 4.00D+00 NAtFMM=   50 NAOKFM=F Big=F
 ------------------------------------------------------------------------------
 Polarizable Continuum Model (PCM)
 =================================
 Model                : C-PCM.
 Atomic radii         : UFF (Universal Force Field).
 Polarization charges : Total charges.
 Charge compensation  : None.
 Solution method      : Matrix inversion.
 Cavity type          : Scaled VdW (van der Waals Surface) (Alpha=1.100).
 Cavity algorithm     : GePol (No added spheres)
                        Default sphere list used, NSphG=    2.
                        Lebedev-Laikov grids with approx.  5.0 points / Ang**2.
                        Smoothing algorithm: Karplus/York (Gamma=1.0000).
                        Polarization charges: spherical gaussians, with
                                              point-specific exponents (IZeta= 3).
                        Self-potential: point-specific (ISelfS= 7).
                        Self-field    : sphere-specific E.n sum rule (ISelfD= 2).
 1st derivatives      : Analytical E(r).r(x)/FMM algorithm (CHGder, D1EAlg=3).
                        Cavity 1st derivative terms included.
 Solvent              : Water, Eps=  78.355300 Eps(inf)=   1.777849
 ------------------------------------------------------------------------------
 Spheres list:
 ISph  on   Nord    Re0     Alpha      Xe            Ye            Ze
    1   N      1    1.830   1.100      0.000000      0.000000      0.552074
    2   N      2    1.830   1.100      0.000000      0.000000     -0.552074
 ------------------------------------------------------------------------------
 GePol: Number of generator spheres                  =       2
 GePol: Total number of spheres                      =       2
 GePol: Number of exposed spheres                    =       2 (100.00%)
 GePol: Number of points                             =     426
 GePol: Average weight of points                     =       0.15
 GePol: Minimum weight of points                     =   0.24D-02
 GePol: Maximum weight of points                     =    0.18586
 GePol: Number of points with low weight             =       0
 GePol: Fraction of low-weight points (<1% of avg)   =       0.00%
 GePol: Cavity surface area                          =     64.893 Ang**2
 GePol: Cavity volume                                =     47.864 Ang**3
 Leave Link  301 at Tue Aug 20 17:32:46 2019, MaxMem=  524288000 cpu:       0.2
 (Enter /home/ubuntu/g09/l302.exe)
 NPDir=0 NMtPBC=     1 NCelOv=     1 NCel=       1 NClECP=     1 NCelD=      1
         NCelK=      1 NCelE2=     1 NClLst=     1 CellRange=     0.0.
 One-electron integrals computed using PRISM.
 One-electron integral symmetry used in STVInt
 NBasis=    46 RedAO= T  NBF=    11     2     5     5     2    11     5     5
 NBsUse=    46 1.00D-06 NBFU=    11     2     5     5     2    11     5     5
 Precomputing XC quadrature grid using
 IXCGrd= 2 IRadAn=           5 IRanWt=          -1 IRanGd=           0 AccXCQ= 0.00D+00.
 NRdTot=     166 NPtTot=       45020 NUsed=       46221 NTot=       46253
 NSgBfM=    50    50    50    50    50 NAtAll=     2     2.
 Leave Link  302 at Tue Aug 20 17:32:47 2019, MaxMem=  524288000 cpu:       1.0
 (Enter /home/ubuntu/g09/l303.exe)
 DipDrv:  MaxL=1.
 Leave Link  303 at Tue Aug 20 17:32:47 2019, MaxMem=  524288000 cpu:       0.1
 (Enter /home/ubuntu/g09/l401.exe)
 Initial guess read from the read-write file.
 B after Tr=     0.000000    0.000000    0.000000
         Rot=    1.000000    0.000000    0.000000    0.000000 Ang=   0.00 deg.
 Guess basis will be translated and rotated to current coordinates.
 Initial guess orbital symmetries:
       Occupied  (SGG) (SGU) (SGG) (SGU) (PIU) (PIU) (SGG)
       Virtual   (PIG) (PIG) (SGU) (SGG) (PIU) (PIU) (SGG) (PIG)
                 (PIG) (SGU) (DLTG) (DLTG) (SGU) (SGG) (PIU) (PIU)
                 (DLTU) (DLTU) (PIG) (PIG) (SGU) (PIU) (PIU) (SGG)
                 (SGU) (PIG) (PIG) (SGG) (PIU) (PIU) (DLTG) (DLTG)
                 (DLTU) (DLTU) (SGG) (SGU) (PIG) (PIG) (SGU)
 The electronic state of the initial guess is 1-SGG.
 Leave Link  401 at Tue Aug 20 17:32:47 2019, MaxMem=  524288000 cpu:       0.4
 (Enter /home/ubuntu/g09/l502.exe)
 Closed shell SCF:
 Requested convergence on RMS density matrix=1.00D-08 within 128 cycles.
 Requested convergence on MAX density matrix=1.00D-06.
 Requested convergence on             energy=1.00D-06.
 No special actions if energy rises.
 Using DIIS extrapolation, IDIIS=  1040.
 Integral symmetry usage will be decided dynamically.
        46190 words used for storage of precomputed grid.
 Keep R1 ints in memory in canonical form, NReq=3991367.
 IEnd=       72726 IEndB=       72726 NGot=   524288000 MDV=   523420987
 LenX=   523420987 LenY=   523418046
 Symmetry not used in FoFDir.
 MinBra= 0 MaxBra= 2 Meth= 1.
 IRaf=       0 NMat=   1 IRICut=       1 DoRegI=T DoRafI=F ISym2E= 0 JSym2E=0.

 Cycle   1  Pass 1  IDiag  1:
 E= -109.543201700397    
 DIIS: error= 3.40D-05 at cycle   1 NSaved=   1.
 NSaved= 1 IEnMin= 1 EnMin= -109.543201700397     IErMin= 1 ErrMin= 3.40D-05
 ErrMax= 3.40D-05 EMaxC= 1.00D-01 BMatC= 5.99D-08 BMatP= 5.99D-08
 IDIUse=1 WtCom= 1.00D+00 WtEn= 0.00D+00
 Coeff-Com:  0.100D+01
 Coeff:      0.100D+01
 Gap=     0.399 Goal=   None    Shift=    0.000
 RMSDP=6.44D-06 MaxDP=5.51D-05              OVMax= 8.11D-05

 Cycle   2  Pass 1  IDiag  1:
 E= -109.543201744794     Delta-E=       -0.000000044398 Rises=F Damp=F
 DIIS: error= 1.07D-05 at cycle   2 NSaved=   2.
 NSaved= 2 IEnMin= 2 EnMin= -109.543201744794     IErMin= 2 ErrMin= 1.07D-05
 ErrMax= 1.07D-05 EMaxC= 1.00D-01 BMatC= 6.19D-09 BMatP= 5.99D-08
 IDIUse=1 WtCom= 1.00D+00 WtEn= 0.00D+00
 Coeff-Com:  0.166D+00 0.834D+00
 Coeff:      0.166D+00 0.834D+00
 Gap=     0.399 Goal=   None    Shift=    0.000
 RMSDP=2.92D-06 MaxDP=3.50D-05 DE=-4.44D-08 OVMax= 3.14D-05

 Cycle   3  Pass 1  IDiag  1:
 E= -109.543201749595     Delta-E=       -0.000000004801 Rises=F Damp=F
 DIIS: error= 4.85D-06 at cycle   3 NSaved=   3.
 NSaved= 3 IEnMin= 3 EnMin= -109.543201749595     IErMin= 3 ErrMin= 4.85D-06
 ErrMax= 4.85D-06 EMaxC= 1.00D-01 BMatC= 9.88D-10 BMatP= 6.19D-09
 IDIUse=1 WtCom= 1.00D+00 WtEn= 0.00D+00
 Coeff-Com: -0.105D-01 0.276D+00 0.735D+00
 Coeff:     -0.105D-01 0.276D+00 0.735D+00
 Gap=     0.399 Goal=   None    Shift=    0.000
 RMSDP=6.80D-07 MaxDP=4.96D-06 DE=-4.80D-09 OVMax= 1.04D-05

 Cycle   4  Pass 1  IDiag  1:
 E= -109.543201750593     Delta-E=       -0.000000000997 Rises=F Damp=F
 DIIS: error= 2.15D-07 at cycle   4 NSaved=   4.
 NSaved= 4 IEnMin= 4 EnMin= -109.543201750593     IErMin= 4 ErrMin= 2.15D-07
 ErrMax= 2.15D-07 EMaxC= 1.00D-01 BMatC= 2.17D-12 BMatP= 9.88D-10
 IDIUse=1 WtCom= 1.00D+00 WtEn= 0.00D+00
 Coeff-Com: -0.233D-02 0.306D-01 0.111D+00 0.861D+00
 Coeff:     -0.233D-02 0.306D-01 0.111D+00 0.861D+00
 Gap=     0.399 Goal=   None    Shift=    0.000
 RMSDP=6.98D-08 MaxDP=1.07D-06 DE=-9.97D-10 OVMax= 6.64D-07

 Cycle   5  Pass 1  IDiag  1:
 E= -109.543201750595     Delta-E=       -0.000000000002 Rises=F Damp=F
 DIIS: error= 2.97D-08 at cycle   5 NSaved=   5.
 NSaved= 5 IEnMin= 5 EnMin= -109.543201750595     IErMin= 5 ErrMin= 2.97D-08
 ErrMax= 2.97D-08 EMaxC= 1.00D-01 BMatC= 2.97D-14 BMatP= 2.17D-12
 IDIUse=1 WtCom= 1.00D+00 WtEn= 0.00D+00
 Coeff-Com:  0.405D-04-0.414D-02-0.656D-02 0.894D-01 0.921D+00
 Coeff:      0.405D-04-0.414D-02-0.656D-02 0.894D-01 0.921D+00
 Gap=     0.399 Goal=   None    Shift=    0.000
 RMSDP=5.20D-09 MaxDP=7.84D-08 DE=-2.07D-12 OVMax= 5.39D-08

 Error on total polarization charges =  0.00569
 SCF Done:  E(RB3LYP) =  -109.543201751     A.U. after    5 cycles
             Convg  =    0.5203D-08             -V/T =  2.0067
 KE= 1.088092893401D+02 PE=-3.029393165960D+02 EE= 6.110296040247D+01
 Leave Link  502 at Tue Aug 20 17:32:47 2019, MaxMem=  524288000 cpu:       3.6
 (Enter /home/ubuntu/g09/l701.exe)
 Compute integral first derivatives.
 ... and contract with generalized density number  0.
 D1PCM: C-PCM CHGder 1st derivatives, ID1Alg=3 FixD1E=F DoIter=F DoCFld=F I1PDM=0.
 GePol: Maximum number of non-zero 1st derivatives   =     245
 Leave Link  701 at Tue Aug 20 17:32:47 2019, MaxMem=  524288000 cpu:       1.6
 (Enter /home/ubuntu/g09/l702.exe)
 L702 exits ... SP integral derivatives will be done elsewhere.
 Leave Link  702 at Tue Aug 20 17:32:47 2019, MaxMem=  524288000 cpu:       0.1
 (Enter /home/ubuntu/g09/l703.exe)
 Compute integral first derivatives, UseDBF=F ICtDFT=           0.
 Integral derivatives from FoFDir, PRISM(SPDF).
 Calling FoFJK, ICntrl=      2127 FMM=F ISym2X=1 I1Cent= 0 IOpClX= 0 NMat=1 NMatS=1 NMatT=0.
 FoFCou: FMM=F IPFlag=           0 FMFlag=      100000 FMFlg1=         800
         NFxFlg=           0 DoJE=F BraDBF=F KetDBF=F FulRan=T
         Omega=  0.000000  0.000000  1.000000  0.000000  0.000000 ICntrl=    2127 IOpCl=  0
         NMat0=    1 NMatS0=    1 NMatT0=    0 NMatD0=    1 NMtDS0=    0 NMtDT0=    0
         I1Cent=           0 NGrid=           0.
 Petite list used in FoFCou.
 Leave Link  703 at Tue Aug 20 17:32:48 2019, MaxMem=  524288000 cpu:       1.0
 (Enter /home/ubuntu/g09/l716.exe)
 Dipole        =-1.97215226D-31 2.11852294D-33-8.88178420D-16
 ***** Axes restored to original set *****
 -------------------------------------------------------------------
 Center     Atomic                   Forces (Hartrees/Bohr)
 Number     Number              X              Y              Z
 -------------------------------------------------------------------
      1        7           0.000000000    0.000000000   -0.000066602
      2        7           0.000000000    0.000000000    0.000066602
 -------------------------------------------------------------------
 Cartesian Forces:  Max     0.000066602 RMS     0.000038452
 Leave Link  716 at Tue Aug 20 17:32:48 2019, MaxMem=  524288000 cpu:       0.1
 (Enter /home/ubuntu/g09/l103.exe)

 GradGradGradGradGradGradGradGradGradGradGradGradGradGradGradGradGradGrad
 Berny optimization.
 Using GEDIIS/GDIIS optimizer.
 Red2BG is reusing G-inverse.
 Internal  Forces:  Max     0.000066602 RMS     0.000066602
 Search for a local minimum.
 Step number   2 out of a maximum of   20
 All quantities printed in internal units (Hartrees-Bohrs-Radians)
 RMS Force = .66602D-04 SwitMx=.10000D-02 MixMth= 2
 Mixed Optimization -- En-DIIS/RFO-DIIS
 Swaping is turned off.
 Update second derivatives using D2CorX and points    2
 DE= -2.10D-07 DEPred=-1.94D-07 R= 1.08D+00
 Trust test= 1.08D+00 RLast= 4.75D-04 DXMaxT set to 3.00D-01
 The second derivative matrix:
                          R1
           R1           1.72357
 ITU=  0  0
     Eigenvalues ---    1.72357
 En-DIIS/RFO-DIIS IScMMF=        0 using points:     2    1
 RFO step:  Lambda=-3.37874173D-09.
 DidBck=F Rises=F RFO-DIIS coefs:    1.08864   -0.08864
 Iteration  1 RMS(Cart)=  0.00002975 RMS(Int)=  0.00000000
 Iteration  2 RMS(Cart)=  0.00000000 RMS(Int)=  0.00000000
 ClnCor:  largest displacement from symmetrization is 1.29D-21 for atom     1.
 Variable       Old X    -DE/DX   Delta X   Delta X   Delta X     New X
                                  (DIIS)     (GDIIS)  (Total)
    R1        2.08654  -0.00007  -0.00004   0.00000  -0.00004   2.08650
         Item               Value     Threshold  Converged?
 Maximum Force            0.000067     0.000450     YES
 RMS     Force            0.000067     0.000300     YES
 Maximum Displacement     0.000021     0.001800     YES
 RMS     Displacement     0.000030     0.001200     YES
 Predicted change in Energy=-1.276688D-09
 Optimization completed.
    -- Stationary point found.
                           ----------------------------
                           !   Optimized Parameters   !
                           ! (Angstroms and Degrees)  !
 --------------------------                            --------------------------
 ! Name  Definition              Value          Derivative Info.                !
 --------------------------------------------------------------------------------
 ! R1    R(1,2)                  1.1041         -DE/DX =   -0.0001              !
 --------------------------------------------------------------------------------
 GradGradGradGradGradGradGradGradGradGradGradGradGradGradGradGradGradGrad

 Largest change from initial coordinates is atom    1       0.000 Angstoms.
 Leave Link  103 at Tue Aug 20 17:32:48 2019, MaxMem=  524288000 cpu:       0.0
 (Enter /home/ubuntu/g09/l202.exe)
                          Input orientation:                          
 ---------------------------------------------------------------------
 Center     Atomic      Atomic             Coordinates (Angstroms)
 Number     Number       Type             X           Y           Z
 ---------------------------------------------------------------------
      1          7           0        0.000000    0.000000    0.552074
      2          7           0        0.000000    0.000000   -0.552074
 ---------------------------------------------------------------------
 Stoichiometry    N2
 Framework group  D*H[C*(N.N)]
 Deg. of freedom     1
 Full point group                 D*H     NOp   8
 Largest Abelian subgroup         D2H     NOp   8
 Largest concise Abelian subgroup C2      NOp   2
                         Standard orientation:                         
 ---------------------------------------------------------------------
 Center     Atomic      Atomic             Coordinates (Angstroms)
 Number     Number       Type             X           Y           Z
 ---------------------------------------------------------------------
      1          7           0        0.000000    0.000000    0.552074
      2          7           0        0.000000    0.000000   -0.552074
 ---------------------------------------------------------------------
 Rotational constants (GHZ):      0.0000000     59.2063843     59.2063843
 Leave Link  202 at Tue Aug 20 17:32:48 2019, MaxMem=  524288000 cpu:       0.0
 (Enter /home/ubuntu/g09/l601.exe)
 Copying SCF densities to generalized density rwf, IOpCl= 0 IROHF=0.

 **********************************************************************

            Population analysis using the SCF density.

 **********************************************************************

 Orbital symmetries:
       Occupied  (SGG) (SGU) (SGG) (SGU) (PIU) (PIU) (SGG)
       Virtual   (PIG) (PIG) (SGU) (SGG) (PIU) (PIU) (SGG) (PIG)
                 (PIG) (SGU) (DLTG) (DLTG) (SGU) (SGG) (PIU) (PIU)
                 (DLTU) (DLTU) (PIG) (PIG) (SGU) (PIU) (PIU) (SGG)
                 (SGU) (PIG) (PIG) (SGG) (PIU) (PIU) (DLTG) (DLTG)
                 (DLTU) (DLTU) (SGG) (SGU) (PIG) (PIG) (SGU)
 The electronic state is 1-SGG.
 Alpha  occ. eigenvalues --  -14.44777 -14.44625  -1.13229  -0.56144  -0.46908
 Alpha  occ. eigenvalues --   -0.46908  -0.43694
 Alpha virt. eigenvalues --   -0.03745  -0.03745   0.05528   0.06283   0.08278
 Alpha virt. eigenvalues --    0.08278   0.12638   0.15472   0.15472   0.25259
 Alpha virt. eigenvalues --    0.43510   0.43510   0.51637   0.54867   0.63745
 Alpha virt. eigenvalues --    0.63745   0.70490   0.70490   0.77756   0.77756
 Alpha virt. eigenvalues --    0.79848   0.83355   0.83355   0.91711   1.01497
 Alpha virt. eigenvalues --    1.15756   1.15756   1.65799   1.92012   1.92012
 Alpha virt. eigenvalues --    1.95833   1.95833   2.32798   2.32798   2.59984
 Alpha virt. eigenvalues --    2.73310   2.77817   2.77817   2.93090
          Condensed to atoms (all electrons):
              1          2
     1  N    7.279773  -0.279773
     2  N   -0.279773   7.279773
 Mulliken atomic charges:
              1
     1  N    0.000000
     2  N    0.000000
 Sum of Mulliken atomic charges =   0.00000
 Mulliken charges with hydrogens summed into heavy atoms:
              1
     1  N    0.000000
     2  N    0.000000
 Sum of Mulliken charges with hydrogens summed into heavy atoms =   0.00000
 Electronic spatial extent (au):  <R**2>=             39.4984
 Charge=              0.0000 electrons
 Dipole moment (field-independent basis, Debye):
    X=              0.0000    Y=              0.0000    Z=              0.0000  Tot=              0.0000
 Quadrupole moment (field-independent basis, Debye-Ang):
   XX=            -10.3687   YY=            -10.3687   ZZ=            -11.8940
   XY=              0.0000   XZ=              0.0000   YZ=              0.0000
 Traceless Quadrupole moment (field-independent basis, Debye-Ang):
   XX=              0.5084   YY=              0.5084   ZZ=             -1.0169
   XY=              0.0000   XZ=              0.0000   YZ=              0.0000
 Octapole moment (field-independent basis, Debye-Ang**2):
  XXX=              0.0000  YYY=              0.0000  ZZZ=              0.0000  XYY=              0.0000
  XXY=              0.0000  XXZ=              0.0000  XZZ=              0.0000  YZZ=              0.0000
  YYZ=              0.0000  XYZ=              0.0000
 Hexadecapole moment (field-independent basis, Debye-Ang**3):
 XXXX=             -9.4752 YYYY=             -9.4752 ZZZZ=            -32.8915 XXXY=              0.0000
 XXXZ=              0.0000 YYYX=              0.0000 YYYZ=              0.0000 ZZZX=              0.0000
 ZZZY=              0.0000 XXYY=             -3.1584 XXZZ=             -6.6426 YYZZ=             -6.6426
 XXYZ=              0.0000 YYXZ=              0.0000 ZZXY=              0.0000
 N-N= 2.348386510291D+01 E-N=-3.029393165859D+02  KE= 1.088092893401D+02
 Symmetry AG   KE= 5.320682890364D+01
 Symmetry B1G  KE= 1.035588988594D-34
 Symmetry B2G  KE= 2.039956291884D-31
 Symmetry B3G  KE= 1.994227545504D-31
 Symmetry AU   KE= 6.074839789949D-34
 Symmetry B1U  KE= 4.878149214981D+01
 Symmetry B2U  KE= 3.410484143302D+00
 Symmetry B3U  KE= 3.410484143302D+00
 No NMR shielding tensors so no spin-rotation constants.
 Leave Link  601 at Tue Aug 20 17:32:48 2019, MaxMem=  524288000 cpu:       1.0
 (Enter /home/ubuntu/g09/l9999.exe)
 1\1\GINC-LC06-3-2\FOpt\RB3LYP\Aug-CC-pVDZ\N2\UBUNTU\20-Aug-2019\0\\#p 
 scrf=(cpcm,solvent=water) opt Temperature=348.15 int=(grid=ultrafine) 
 CPHF=(grid=fine) freq rb3lyp/aug-cc-pvdz\\N2-RB3LYP-aug-cc-pVDZ--\\0,1
 \N,0.,0.,0.5520744372\N,0.,0.,-0.5520744372\\Version=EM64L-G09RevB.01\
 State=1-SGG\HF=-109.5432018\RMSD=5.203e-09\RMSF=3.845e-05\Dipole=0.,0.
 ,0.\Quadrupole=0.3780146,0.3780146,-0.7560292,0.,0.,0.\PG=D*H [C*(N1.N
 1)]\\@


 THERE IS SOMETHING FASCINATING ABOUT SCIENCE.
 ONE GETS SUCH WHOLESALE CONJECTURE OUT OF SUCH TRIFLING INVESTMENTS.

                                                       -- MARK TWAIN
 Leave Link 9999 at Tue Aug 20 17:32:48 2019, MaxMem=  524288000 cpu:       0.1
 Job cpu time:  0 days  0 hours  0 minutes 21.2 seconds.
 File lengths (MBytes):  RWF=      9 Int=      0 D2E=      0 Chk=      1 Scr=      1
 Normal termination of Gaussian 09 at Tue Aug 20 17:32:48 2019.
 (Enter /home/ubuntu/g09/l1.exe)
 Link1:  Proceeding to internal job step number  2.
 ----------------------------------------------------------------------
 #P Geom=AllCheck Guess=TCheck SCRF=Check GenChk RB3LYP/Aug-CC-pVDZ Fre
 q
 ----------------------------------------------------------------------
 1/10=4,29=7,30=1,38=1,40=1,112=348150/1,3;
 2/12=2,40=1/2;
 3/5=16,7=10,11=2,14=-4,16=1,25=1,30=1,70=2,71=2,72=1,74=-5,75=-5,116=1/1,2,3;
 4/5=101/1;
 5/5=2,53=1,96=4,98=1/2;
 8/6=4,10=90,11=11/1;
 11/6=1,8=1,9=11,15=111,16=1/1,2,10;
 10/6=1,60=4/2;
 6/7=2,8=2,9=2,10=2,18=1,28=1/1;
 7/8=1,10=1,25=1/1,2,3,16;
 1/10=4,30=1/3;
 99//99;
 Leave Link    1 at Tue Aug 20 17:32:48 2019, MaxMem=  524288000 cpu:       0.2
 (Enter /home/ubuntu/g09/l101.exe)
 -----------------------
 N2-RB3LYP-aug-cc-pVDZ--
 -----------------------
 Redundant internal coordinates taken from checkpoint file:
 /home/ubuntu/g09/Gau-1540.chk
 Charge =  0 Multiplicity = 1
 N,0,0.,0.,0.5520744372
 N,0,0.,0.,-0.5520744372
 Recover connectivity data from disk.
                    Isotopes and Nuclear Properties:
 (Nuclear quadrupole moments (NQMom) in fm**2, nuclear magnetic moments (NMagM)
  in nuclear magnetons)

  Atom         1           2
 IAtWgt=          14          14
 AtmWgt=  14.0030740  14.0030740
 NucSpn=           2           2
 AtZEff=  -4.5500000  -4.5500000
 NQMom=    2.0440000   2.0440000
 NMagM=    0.4037610   0.4037610
 Leave Link  101 at Tue Aug 20 17:32:48 2019, MaxMem=  524288000 cpu:       0.4
 (Enter /home/ubuntu/g09/l103.exe)

 GradGradGradGradGradGradGradGradGradGradGradGradGradGradGradGradGradGrad
 Berny optimization.
 Initialization pass.
                           ----------------------------
                           !    Initial Parameters    !
                           ! (Angstroms and Degrees)  !
 --------------------------                            --------------------------
 ! Name  Definition              Value          Derivative Info.                !
 --------------------------------------------------------------------------------
 ! R1    R(1,2)                  1.1041         calculate D2E/DX2 analytically  !
 --------------------------------------------------------------------------------
 Trust Radius=3.00D-01 FncErr=1.00D-07 GrdErr=1.00D-07
 Number of steps in this run=      2 maximum allowed number of steps=      2.
 GradGradGradGradGradGradGradGradGradGradGradGradGradGradGradGradGradGrad

 Leave Link  103 at Tue Aug 20 17:32:48 2019, MaxMem=  524288000 cpu:       0.0
 (Enter /home/ubuntu/g09/l202.exe)
                          Input orientation:                          
 ---------------------------------------------------------------------
 Center     Atomic      Atomic             Coordinates (Angstroms)
 Number     Number       Type             X           Y           Z
 ---------------------------------------------------------------------
      1          7           0        0.000000    0.000000    0.552074
      2          7           0        0.000000    0.000000   -0.552074
 ---------------------------------------------------------------------
 Stoichiometry    N2
 Framework group  D*H[C*(N.N)]
 Deg. of freedom     1
 Full point group                 D*H     NOp   8
 Largest Abelian subgroup         D2H     NOp   8
 Largest concise Abelian subgroup C2      NOp   2
                         Standard orientation:                         
 ---------------------------------------------------------------------
 Center     Atomic      Atomic             Coordinates (Angstroms)
 Number     Number       Type             X           Y           Z
 ---------------------------------------------------------------------
      1          7           0        0.000000    0.000000    0.552074
      2          7           0        0.000000    0.000000   -0.552074
 ---------------------------------------------------------------------
 Rotational constants (GHZ):      0.0000000     59.2063843     59.2063843
 Leave Link  202 at Tue Aug 20 17:32:48 2019, MaxMem=  524288000 cpu:       0.0
 (Enter /home/ubuntu/g09/l301.exe)
 Standard basis: Aug-CC-pVDZ (5D, 7F)
 Ernie: Thresh=  0.10000D-02 Tol=  0.10000D-05 Strict=F.
 Ernie:  4 primitive shells out of 50 were deleted.
 There are    11 symmetry adapted basis functions of AG  symmetry.
 There are     2 symmetry adapted basis functions of B1G symmetry.
 There are     5 symmetry adapted basis functions of B2G symmetry.
 There are     5 symmetry adapted basis functions of B3G symmetry.
 There are     2 symmetry adapted basis functions of AU  symmetry.
 There are    11 symmetry adapted basis functions of B1U symmetry.
 There are     5 symmetry adapted basis functions of B2U symmetry.
 There are     5 symmetry adapted basis functions of B3U symmetry.
 Integral buffers will be    131072 words long.
 Raffenetti 2 integral format.
 Two-electron integral symmetry is turned on.
    46 basis functions,    86 primitive gaussians,    50 cartesian basis functions
     7 alpha electrons        7 beta electrons
       nuclear repulsion energy        23.4838651029 Hartrees.
 IExCor=  402 DFT=T Ex+Corr=B3LYP ExCW=0 ScaHFX=  0.200000
 ScaDFX=  0.800000  0.720000  1.000000  0.810000 ScalE2=  1.000000  1.000000
 IRadAn=      5 IRanWt=     -1 IRanGd=            0 ICorTp=0
 NAtoms=    2 NActive=    2 NUniq=    1 SFac= 4.00D+00 NAtFMM=   50 NAOKFM=F Big=F
 ------------------------------------------------------------------------------
 Polarizable Continuum Model (PCM)
 =================================
 Model                : C-PCM.
 Atomic radii         : UFF (Universal Force Field).
 Polarization charges : Total charges.
 Charge compensation  : None.
 Solution method      : Matrix inversion.
 Cavity type          : Scaled VdW (van der Waals Surface) (Alpha=1.100).
 Cavity algorithm     : GePol (No added spheres)
                        Default sphere list used, NSphG=    2.
                        Lebedev-Laikov grids with approx.  5.0 points / Ang**2.
                        Smoothing algorithm: Karplus/York (Gamma=1.0000).
                        Polarization charges: spherical gaussians, with
                                              point-specific exponents (IZeta= 3).
                        Self-potential: point-specific (ISelfS= 7).
                        Self-field    : sphere-specific E.n sum rule (ISelfD= 2).
 1st derivatives      : Analytical E(r).r(x)/FMM algorithm (CHGder, D1EAlg=3).
                        Cavity 1st derivative terms included.
 2nd derivatives      : Analytical E(r).r(xy)/FMM algorithm (CHGder, D2EAlg=3).
                        Cavity 2nd derivative terms included.
 Solvent              : Water, Eps=  78.355300 Eps(inf)=   1.777849
 ------------------------------------------------------------------------------
 Spheres list:
 ISph  on   Nord    Re0     Alpha      Xe            Ye            Ze
    1   N      1    1.830   1.100      0.000000      0.000000      0.552074
    2   N      2    1.830   1.100      0.000000      0.000000     -0.552074
 ------------------------------------------------------------------------------
 GePol: Number of generator spheres                  =       2
 GePol: Total number of spheres                      =       2
 GePol: Number of exposed spheres                    =       2 (100.00%)
 GePol: Number of points                             =     426
 GePol: Average weight of points                     =       0.15
 GePol: Minimum weight of points                     =   0.24D-02
 GePol: Maximum weight of points                     =    0.18586
 GePol: Number of points with low weight             =       0
 GePol: Fraction of low-weight points (<1% of avg)   =       0.00%
 GePol: Cavity surface area                          =     64.893 Ang**2
 GePol: Cavity volume                                =     47.864 Ang**3
 Leave Link  301 at Tue Aug 20 17:32:48 2019, MaxMem=  524288000 cpu:       0.2
 (Enter /home/ubuntu/g09/l302.exe)
 NPDir=0 NMtPBC=     1 NCelOv=     1 NCel=       1 NClECP=     1 NCelD=      1
         NCelK=      1 NCelE2=     1 NClLst=     1 CellRange=     0.0.
 One-electron integrals computed using PRISM.
 One-electron integral symmetry used in STVInt
 NBasis=    46 RedAO= T  NBF=    11     2     5     5     2    11     5     5
 NBsUse=    46 1.00D-06 NBFU=    11     2     5     5     2    11     5     5
 Precomputing XC quadrature grid using
 IXCGrd= 2 IRadAn=           5 IRanWt=          -1 IRanGd=           0 AccXCQ= 0.00D+00.
 NRdTot=     166 NPtTot=       45020 NUsed=       46221 NTot=       46253
 NSgBfM=    50    50    50    50    50 NAtAll=     2     2.
 Leave Link  302 at Tue Aug 20 17:32:48 2019, MaxMem=  524288000 cpu:       1.0
 (Enter /home/ubuntu/g09/l303.exe)
 DipDrv:  MaxL=1.
 Leave Link  303 at Tue Aug 20 17:32:48 2019, MaxMem=  524288000 cpu:       0.1
 (Enter /home/ubuntu/g09/l401.exe)
 Initial guess read from the checkpoint file:  /home/ubuntu/g09/Gau-1540.chk
 B after Tr=     0.000000    0.000000    0.000000
         Rot=    1.000000    0.000000    0.000000    0.000000 Ang=   0.00 deg.
 Guess basis will be translated and rotated to current coordinates.
 Initial guess orbital symmetries:
       Occupied  (SGG) (SGU) (SGG) (SGU) (PIU) (PIU) (SGG)
       Virtual   (PIG) (PIG) (SGU) (SGG) (PIU) (PIU) (SGG) (PIG)
                 (PIG) (SGU) (DLTG) (DLTG) (SGU) (SGG) (PIU) (PIU)
                 (DLTU) (DLTU) (PIG) (PIG) (SGU) (PIU) (PIU) (SGG)
                 (SGU) (PIG) (PIG) (SGG) (PIU) (PIU) (DLTG) (DLTG)
                 (DLTU) (DLTU) (SGG) (SGU) (PIG) (PIG) (SGU)
 The electronic state of the initial guess is 1-SGG.
 Leave Link  401 at Tue Aug 20 17:32:48 2019, MaxMem=  524288000 cpu:       0.4
 (Enter /home/ubuntu/g09/l502.exe)
 Closed shell SCF:
 Requested convergence on RMS density matrix=1.00D-08 within 128 cycles.
 Requested convergence on MAX density matrix=1.00D-06.
 Requested convergence on             energy=1.00D-06.
 No special actions if energy rises.
 Using DIIS extrapolation, IDIIS=  1040.
 Integral symmetry usage will be decided dynamically.
        46190 words used for storage of precomputed grid.
 Keep R1 ints in memory in canonical form, NReq=3991367.
 IEnd=       72726 IEndB=       72726 NGot=   524288000 MDV=   523420987
 LenX=   523420987 LenY=   523418046
 Symmetry not used in FoFDir.
 MinBra= 0 MaxBra= 2 Meth= 1.
 IRaf=       0 NMat=   1 IRICut=       1 DoRegI=T DoRafI=F ISym2E= 0 JSym2E=0.

 Cycle   1  Pass 1  IDiag  1:
 E= -109.543201750595    
 DIIS: error= 6.91D-10 at cycle   1 NSaved=   1.
 NSaved= 1 IEnMin= 1 EnMin= -109.543201750595     IErMin= 1 ErrMin= 6.91D-10
 ErrMax= 6.91D-10 EMaxC= 1.00D-01 BMatC= 1.27D-17 BMatP= 1.27D-17
 IDIUse=1 WtCom= 1.00D+00 WtEn= 0.00D+00
 Coeff-Com:  0.100D+01
 Coeff:      0.100D+01
 Gap=     0.399 Goal=   None    Shift=    0.000
 RMSDP=2.73D-10 MaxDP=4.12D-09              OVMax= 2.79D-09

 Error on total polarization charges =  0.00569
 SCF Done:  E(RB3LYP) =  -109.543201751     A.U. after    1 cycles
             Convg  =    0.2726D-09             -V/T =  2.0067
 KE= 1.088092893380D+02 PE=-3.029393165839D+02 EE= 6.110296039233D+01
 Leave Link  502 at Tue Aug 20 17:32:48 2019, MaxMem=  524288000 cpu:       1.6
 (Enter /home/ubuntu/g09/l801.exe)
 Range of M.O.s used for correlation:     1    46
 NBasis=    46 NAE=     7 NBE=     7 NFC=     0 NFV=     0
 NROrb=     46 NOA=     7 NOB=     7 NVA=    39 NVB=    39

 **** Warning!!: The largest alpha MO coefficient is  0.30784544D+02

 Leave Link  801 at Tue Aug 20 17:32:48 2019, MaxMem=  524288000 cpu:       0.1
 (Enter /home/ubuntu/g09/l1101.exe)
 Using compressed storage, NAtomX=     2.
 Will process   3 centers per pass.
 Leave Link 1101 at Tue Aug 20 17:32:49 2019, MaxMem=  524288000 cpu:       0.9
 (Enter /home/ubuntu/g09/l1102.exe)
 Symmetrizing basis deriv contribution to polar:
 IMax=3 JMax=2 DiffMx= 0.00D+00
 Leave Link 1102 at Tue Aug 20 17:32:49 2019, MaxMem=  524288000 cpu:       0.1
 (Enter /home/ubuntu/g09/l1110.exe)
 Forming Gx(P) for the SCF density, NAtomX=     2.
 Integral derivatives from FoFDir/FoFCou, PRISM(SPDF).
 Do as many integral derivatives as possible in FoFDir.
 G2DrvN: MDV=     524287880.
 G2DrvN: will do     3 centers at a time, making    1 passes doing MaxLOS=2.
 Calling FoFCou, ICntrl=  3107 FMM=F I1Cent=   0 AccDes= 0.00D+00.
 FoFCou: FMM=F IPFlag=           0 FMFlag=      100000 FMFlg1=           0
         NFxFlg=           0 DoJE=F BraDBF=F KetDBF=F FulRan=T
         Omega=  0.000000  0.000000  1.000000  0.000000  0.000000 ICntrl=    3107 IOpCl=  0
         NMat0=    1 NMatS0=    1 NMatT0=    0 NMatD0=    1 NMtDS0=    0 NMtDT0=    0
         I1Cent=           0 NGrid=           0.
 Petite list used in FoFCou.
 FoFDir/FoFCou used for L=0 through L=2.
 G2PCM: DoFxE=T DoFxN=T DoGrad=T DoPD/DQ/DG=FFF NFrqRd=   0 IEInf=0 DoCFld=F IF1Alg=4.
 GePol: Maximum number of non-zero 1st derivatives   =     245
 End of G2Drv Frequency-dependent properties file   721 does not exist.
 End of G2Drv Frequency-dependent properties file   722 does not exist.
 Leave Link 1110 at Tue Aug 20 17:32:49 2019, MaxMem=  524288000 cpu:       4.5
 (Enter /home/ubuntu/g09/l1002.exe)
 Minotr:  Closed shell wavefunction.
          IDoAtm=11
 NEqPCM:  Using equilibrium solvation (IEInf=0, Eps=  78.3553, EpsInf=   1.7778)
          Direct CPHF calculation.
          Differentiating once with respect to electric field.
                with respect to dipole field.
          Differentiating once with respect to nuclear coordinates.
          Using symmetry in CPHF.
          Requested convergence is 1.0D-08 RMS, and 1.0D-07 maximum.
          Secondary convergence is 1.0D-12 RMS, and 1.0D-12 maximum.
          NewPWx=T KeepS1=F KeepF1=F KeepIn=T MapXYZ=F SortEE=F KeepMc=T.
          MDV=     524287976 using IRadAn=       4.
 Generate precomputed XC quadrature information.
          Keep R1 ints in memory in canonical form, NReq=1635336.
 Symmetry not used in FoFDir.
 MinBra= 0 MaxBra= 2 Meth= 1.
 IRaf=       0 NMat=   1 IRICut=       1 DoRegI=T DoRafI=F ISym2E= 0 JSym2E=0.
          Solving linear equations simultaneously, MaxMat=       0.
          There are     6 degrees of freedom in the 1st order CPHF.  IDoFFX=4.
      6 vectors produced by pass  0 Test12= 4.55D-15 1.67D-08 XBig12= 1.48D+01 2.51D+00.
 AX will form     6 AO Fock derivatives at one time.
      6 vectors produced by pass  1 Test12= 4.55D-15 1.67D-08 XBig12= 1.42D+01 1.98D+00.
      6 vectors produced by pass  2 Test12= 4.55D-15 1.67D-08 XBig12= 1.11D-01 1.48D-01.
      6 vectors produced by pass  3 Test12= 4.55D-15 1.67D-08 XBig12= 2.57D-04 5.69D-03.
      6 vectors produced by pass  4 Test12= 4.55D-15 1.67D-08 XBig12= 9.39D-07 3.95D-04.
      6 vectors produced by pass  5 Test12= 4.55D-15 1.67D-08 XBig12= 9.60D-10 1.50D-05.
      2 vectors produced by pass  6 Test12= 4.55D-15 1.67D-08 XBig12= 1.19D-12 4.50D-07.
 Inverted reduced A of dimension    38 with in-core refinement.
 FullF1:  Do perturbations    1 to     6.
 Isotropic polarizability for W=    0.000000       13.74 Bohr**3.
 End of Minotr Frequency-dependent properties file   721 does not exist.
 End of Minotr Frequency-dependent properties file   722 does not exist.
 Leave Link 1002 at Tue Aug 20 17:32:51 2019, MaxMem=  524288000 cpu:      11.1
 (Enter /home/ubuntu/g09/l601.exe)
 Copying SCF densities to generalized density rwf, IOpCl= 0 IROHF=0.

 **********************************************************************

            Population analysis using the SCF density.

 **********************************************************************

 Orbital symmetries:
       Occupied  (SGG) (SGU) (SGG) (SGU) (PIU) (PIU) (SGG)
       Virtual   (PIG) (PIG) (SGU) (SGG) (PIU) (PIU) (SGG) (PIG)
                 (PIG) (SGU) (DLTG) (DLTG) (SGU) (SGG) (PIU) (PIU)
                 (DLTU) (DLTU) (PIG) (PIG) (SGU) (PIU) (PIU) (SGG)
                 (SGU) (PIG) (PIG) (SGG) (PIU) (PIU) (DLTG) (DLTG)
                 (DLTU) (DLTU) (SGG) (SGU) (PIG) (PIG) (SGU)
 The electronic state is 1-SGG.
 Alpha  occ. eigenvalues --  -14.44777 -14.44625  -1.13229  -0.56144  -0.46908
 Alpha  occ. eigenvalues --   -0.46908  -0.43694
 Alpha virt. eigenvalues --   -0.03745  -0.03745   0.05528   0.06283   0.08278
 Alpha virt. eigenvalues --    0.08278   0.12638   0.15472   0.15472   0.25259
 Alpha virt. eigenvalues --    0.43510   0.43510   0.51637   0.54867   0.63745
 Alpha virt. eigenvalues --    0.63745   0.70490   0.70490   0.77756   0.77756
 Alpha virt. eigenvalues --    0.79848   0.83355   0.83355   0.91711   1.01497
 Alpha virt. eigenvalues --    1.15756   1.15756   1.65799   1.92012   1.92012
 Alpha virt. eigenvalues --    1.95833   1.95833   2.32798   2.32798   2.59984
 Alpha virt. eigenvalues --    2.73310   2.77817   2.77817   2.93090
          Condensed to atoms (all electrons):
              1          2
     1  N    7.279773  -0.279773
     2  N   -0.279773   7.279773
 Mulliken atomic charges:
              1
     1  N    0.000000
     2  N    0.000000
 Sum of Mulliken atomic charges =   0.00000
 Mulliken charges with hydrogens summed into heavy atoms:
              1
     1  N    0.000000
     2  N    0.000000
 Sum of Mulliken charges with hydrogens summed into heavy atoms =   0.00000
 APT atomic charges:
              1
     1  N    0.000000
     2  N    0.000000
 Sum of APT charges=   0.00000
 APT Atomic charges with hydrogens summed into heavy atoms:
              1
     1  N    0.000000
     2  N    0.000000
 Sum of APT charges=   0.00000
 Electronic spatial extent (au):  <R**2>=             39.4984
 Charge=              0.0000 electrons
 Dipole moment (field-independent basis, Debye):
    X=              0.0000    Y=              0.0000    Z=              0.0000  Tot=              0.0000
 Quadrupole moment (field-independent basis, Debye-Ang):
   XX=            -10.3687   YY=            -10.3687   ZZ=            -11.8940
   XY=              0.0000   XZ=              0.0000   YZ=              0.0000
 Traceless Quadrupole moment (field-independent basis, Debye-Ang):
   XX=              0.5084   YY=              0.5084   ZZ=             -1.0169
   XY=              0.0000   XZ=              0.0000   YZ=              0.0000
 Octapole moment (field-independent basis, Debye-Ang**2):
  XXX=              0.0000  YYY=              0.0000  ZZZ=              0.0000  XYY=              0.0000
  XXY=              0.0000  XXZ=              0.0000  XZZ=              0.0000  YZZ=              0.0000
  YYZ=              0.0000  XYZ=              0.0000
 Hexadecapole moment (field-independent basis, Debye-Ang**3):
 XXXX=             -9.4752 YYYY=             -9.4752 ZZZZ=            -32.8915 XXXY=              0.0000
 XXXZ=              0.0000 YYYX=              0.0000 YYYZ=              0.0000 ZZZX=              0.0000
 ZZZY=              0.0000 XXYY=             -3.1584 XXZZ=             -6.6426 YYZZ=             -6.6426
 XXYZ=              0.0000 YYXZ=              0.0000 ZZXY=              0.0000
 N-N= 2.348386510291D+01 E-N=-3.029393165879D+02  KE= 1.088092893380D+02
 Symmetry AG   KE= 5.320682889147D+01
 Symmetry B1G  KE= 1.035588989809D-34
 Symmetry B2G  KE= 1.878222188576D-31
 Symmetry B3G  KE= 2.167930504496D-31
 Symmetry AU   KE= 6.074839808423D-34
 Symmetry B1U  KE= 4.878149214363D+01
 Symmetry B2U  KE= 3.410484151470D+00
 Symmetry B3U  KE= 3.410484151470D+00
  Exact polarizability:  11.593   0.000  11.593   0.000   0.000  18.029
 Approx polarizability:  13.236   0.000  13.236   0.000   0.000  28.585
 No NMR shielding tensors so no spin-rotation constants.
 Leave Link  601 at Tue Aug 20 17:32:51 2019, MaxMem=  524288000 cpu:       1.0
 (Enter /home/ubuntu/g09/l701.exe)
 Compute integral second derivatives.
 ... and contract with generalized density number  0.
 D2PCM: C-PCM CHGder 2nd derivatives, FixD1E=F FixD2E=F DoIter=F DoCFld=F I1PDM=0
 GePol: Maximum number of non-zero 2nd derivatives   =     245
 Leave Link  701 at Tue Aug 20 17:32:51 2019, MaxMem=  524288000 cpu:       2.9
 (Enter /home/ubuntu/g09/l702.exe)
 L702 exits ... SP integral derivatives will be done elsewhere.
 Leave Link  702 at Tue Aug 20 17:32:51 2019, MaxMem=  524288000 cpu:       0.1
 (Enter /home/ubuntu/g09/l703.exe)
 Compute integral second derivatives, UseDBF=F ICtDFT=           0.
 Integral derivatives from FoFDir, PRISM(SPDF).
 Calling FoFJK, ICntrl=    100127 FMM=F ISym2X=1 I1Cent= 0 IOpClX= 0 NMat=1 NMatS=1 NMatT=0.
 FoFCou: FMM=F IPFlag=           0 FMFlag=      100000 FMFlg1=         800
         NFxFlg=           0 DoJE=F BraDBF=F KetDBF=F FulRan=T
         Omega=  0.000000  0.000000  1.000000  0.000000  0.000000 ICntrl=  100127 IOpCl=  0
         NMat0=    1 NMatS0=    1 NMatT0=    0 NMatD0=    1 NMtDS0=    0 NMtDT0=    0
         I1Cent=           0 NGrid=           0.
 Petite list used in FoFCou.
 Leave Link  703 at Tue Aug 20 17:32:52 2019, MaxMem=  524288000 cpu:       2.0
 (Enter /home/ubuntu/g09/l716.exe)
 Dipole        =-1.18329136D-30 7.70371978D-34 1.39389898D-15
 Polarizability= 1.15932224D+01 1.60189005D-12 1.15932224D+01
                -6.75188086D-13 1.02912883D-13 1.80294090D+01
 Full mass-weighted force constant matrix:
 Low frequencies ---  -16.4949  -16.4949    0.0021    0.0022    0.0024 2445.5427
 Harmonic frequencies (cm**-1), IR intensities (KM/Mole), Raman scattering
 activities (A**4/AMU), depolarization ratios for plane and unpolarized
 incident light, reduced masses (AMU), force constants (mDyne/A),
 and normal coordinates:
                     1
                    SGG
 Frequencies --  2445.5427
 Red. masses --    14.0031
 Frc consts  --    49.3428
 IR Inten    --     0.0000
  Atom  AN      X      Y      Z
     1   7     0.00   0.00   0.71
     2   7     0.00   0.00  -0.71

 -------------------
 - Thermochemistry -
 -------------------
 Temperature   348.150 Kelvin.  Pressure   1.00000 Atm.
 Atom     1 has atomic number  7 and mass  14.00307
 Atom     2 has atomic number  7 and mass  14.00307
 Molecular mass:    28.00615 amu.
 Principal axes and moments of inertia in atomic units:
                           1         2         3
     Eigenvalues --     0.00000  30.48221  30.48221
           X            0.00000   1.00000   0.00000
           Y            0.00000   0.00000   1.00000
           Z            1.00000   0.00000   0.00000
 This molecule is a prolate symmetric top.
 Rotational symmetry number  2.
 Rotational temperature (Kelvin)      2.84145
 Rotational constant (GHZ):          59.206384
 Zero-point vibrational energy      14627.6 (Joules/Mol)
                                    3.49608 (Kcal/Mol)
 Vibrational temperatures:   3518.59
          (Kelvin)
 
 Zero-point correction=                           0.005571 (Hartree/Particle)
 Thermal correction to Energy=                    0.008328
 Thermal correction to Enthalpy=                  0.009431
 Thermal correction to Gibbs Free Energy=        -0.016568
 Sum of electronic and zero-point Energies=           -109.537630
 Sum of electronic and thermal Energies=              -109.534874
 Sum of electronic and thermal Enthalpies=            -109.533771
 Sum of electronic and thermal Free Energies=         -109.559770
 
                     E (Thermal)             CV                S
                      KCal/Mol        Cal/Mol-Kelvin    Cal/Mol-Kelvin
 Total                    5.226              4.976             46.860
 Electronic               0.000              0.000              0.000
 Translational            1.038              2.981             36.694
 Rotational               0.692              1.987             10.165
 Vibrational              3.496              0.008              0.001
                       Q            Log10(Q)             Ln(Q)
 Total Bot       0.335949D+07          6.526274         15.027301
 Total V=0       0.525869D+09          8.720878         20.080563
 Vib (Bot)       0.638872D-02         -2.194586         -5.053221
 Vib (V=0)       0.100004D+01          0.000018          0.000041
 Electronic      0.100000D+01          0.000000          0.000000
 Translational   0.858350D+07          6.933664         15.965352
 Rotational      0.612626D+02          1.787196          4.115170
 ***** Axes restored to original set *****
 -------------------------------------------------------------------
 Center     Atomic                   Forces (Hartrees/Bohr)
 Number     Number              X              Y              Z
 -------------------------------------------------------------------
      1        7           0.000000000    0.000000000   -0.000066599
      2        7           0.000000000    0.000000000    0.000066599
 -------------------------------------------------------------------
 Cartesian Forces:  Max     0.000066599 RMS     0.000038451
 Force constants in Cartesian coordinates: 
                1             2             3             4             5 
      1 -0.720916D-04
      2  0.000000D+00 -0.720916D-04
      3  0.000000D+00  0.000000D+00  0.158466D+01
      4  0.720916D-04  0.000000D+00  0.000000D+00 -0.720916D-04
      5  0.000000D+00  0.720916D-04  0.000000D+00  0.000000D+00 -0.720916D-04
      6  0.000000D+00  0.000000D+00 -0.158466D+01  0.000000D+00  0.000000D+00
                6 
      6  0.158466D+01
 Force constants in internal coordinates: 
                1 
      1  0.158466D+01
 Leave Link  716 at Tue Aug 20 17:32:52 2019, MaxMem=  524288000 cpu:       0.3
 (Enter /home/ubuntu/g09/l103.exe)

 GradGradGradGradGradGradGradGradGradGradGradGradGradGradGradGradGradGrad
 Berny optimization.
 Red2BG is reusing G-inverse.
 Internal  Forces:  Max     0.000066599 RMS     0.000066599
 Search for a local minimum.
 Step number   1 out of a maximum of    2
 All quantities printed in internal units (Hartrees-Bohrs-Radians)
 Second derivative matrix not updated -- analytic derivatives used.
 The second derivative matrix:
                          R1
           R1           1.58466
 ITU=  0
     Eigenvalues ---    1.58466
 Angle between quadratic step and forces=   0.00 degrees.
 Linear search not attempted -- first point.
 Iteration  1 RMS(Cart)=  0.00002972 RMS(Int)=  0.00000000
 Iteration  2 RMS(Cart)=  0.00000000 RMS(Int)=  0.00000000
 ClnCor:  largest displacement from symmetrization is 1.29D-21 for atom     1.
 Variable       Old X    -DE/DX   Delta X   Delta X   Delta X     New X
                                 (Linear)    (Quad)   (Total)
    R1        2.08654  -0.00007   0.00000  -0.00004  -0.00004   2.08650
         Item               Value     Threshold  Converged?
 Maximum Force            0.000067     0.000450     YES
 RMS     Force            0.000067     0.000300     YES
 Maximum Displacement     0.000021     0.001800     YES
 RMS     Displacement     0.000030     0.001200     YES
 Predicted change in Energy=-1.399502D-09
 Optimization completed.
    -- Stationary point found.
                           ----------------------------
                           !   Optimized Parameters   !
                           ! (Angstroms and Degrees)  !
 --------------------------                            --------------------------
 ! Name  Definition              Value          Derivative Info.                !
 --------------------------------------------------------------------------------
 ! R1    R(1,2)                  1.1041         -DE/DX =   -0.0001              !
 --------------------------------------------------------------------------------
 GradGradGradGradGradGradGradGradGradGradGradGradGradGradGradGradGradGrad

 Leave Link  103 at Tue Aug 20 17:32:52 2019, MaxMem=  524288000 cpu:       0.0
 (Enter /home/ubuntu/g09/l9999.exe)
 1\1\GINC-LC06-3-2\Freq\RB3LYP\Aug-CC-pVDZ\N2\UBUNTU\20-Aug-2019\0\\#P 
 Geom=AllCheck Guess=TCheck SCRF=Check GenChk RB3LYP/Aug-CC-pVDZ Freq\\
 N2-RB3LYP-aug-cc-pVDZ--\\0,1\N,0.,0.,0.5520744372\N,0.,0.,-0.552074437
 2\\Version=EM64L-G09RevB.01\State=1-SGG\HF=-109.5432018\RMSD=2.726e-10
 \RMSF=3.845e-05\ZeroPoint=0.0055714\Thermal=0.0083281\Dipole=0.,0.,0.\
 DipoleDeriv=0.,0.,0.,0.,0.,0.,0.,0.,0.,0.,0.,0.,0.,0.,0.,0.,0.,0.\Pola
 r=11.5932224,0.,11.5932224,0.,0.,18.029409\PG=D*H [C*(N1.N1)]\NImag=0\
 \-0.00007209,0.,-0.00007209,0.,0.,1.58465718,0.00007209,0.,0.,-0.00007
 209,0.,0.00007209,0.,0.,-0.00007209,0.,0.,-1.58465718,0.,0.,1.58465718
 \\0.,0.,0.00006660,0.,0.,-0.00006660\\\@


 ERWIN WITH HIS PSI CAN DO
 CALCULATIONS QUITE A FEW.
 BUT ONE THING HAS NOT BEEN SEEN
 JUST WHAT DOES PSI REALLY MEAN.
 -- WALTER HUCKEL, TRANS. BY FELIX BLOCH
 Job cpu time:  0 days  0 hours  0 minutes 27.4 seconds.
 File lengths (MBytes):  RWF=      9 Int=      0 D2E=      0 Chk=      2 Scr=      1
 Normal termination of Gaussian 09 at Tue Aug 20 17:32:52 2019.
