 Entering Gaussian System, Link 0=/home/ubuntu/g09/g09
 Input=o-NO2-Ph-OTf-RB3LYP-aug-cc-pVDZ-T348-Water.gjf
 Output=o-NO2-Ph-OTf-RB3LYP-aug-cc-pVDZ-T348-Water.log
 Initial command:
 /home/ubuntu/g09/l1.exe /home/ubuntu/g09/Gau-1866.inp -scrdir=/home/ubuntu/g09/
 Entering Link 1 = /home/ubuntu/g09/l1.exe PID=      1868.
  
 Copyright (c) 1988,1990,1992,1993,1995,1998,2003,2009,2010,
            Gaussian, Inc.  All Rights Reserved.
  
 This is part of the Gaussian(R) 09 program.  It is based on
 the Gaussian(R) 03 system (copyright 2003, Gaussian, Inc.),
 the Gaussian(R) 98 system (copyright 1998, Gaussian, Inc.),
 the Gaussian(R) 94 system (copyright 1995, Gaussian, Inc.),
 the Gaussian 92(TM) system (copyright 1992, Gaussian, Inc.),
 the Gaussian 90(TM) system (copyright 1990, Gaussian, Inc.),
 the Gaussian 88(TM) system (copyright 1988, Gaussian, Inc.),
 the Gaussian 86(TM) system (copyright 1986, Carnegie Mellon
 University), and the Gaussian 82(TM) system (copyright 1983,
 Carnegie Mellon University). Gaussian is a federally registered
 trademark of Gaussian, Inc.
  
 This software contains proprietary and confidential information,
 including trade secrets, belonging to Gaussian, Inc.
  
 This software is provided under written license and may be
 used, copied, transmitted, or stored only in accord with that
 written license.
  
 The following legend is applicable only to US Government
 contracts under FAR:
  
                    RESTRICTED RIGHTS LEGEND
  
 Use, reproduction and disclosure by the US Government is
 subject to restrictions as set forth in subparagraphs (a)
 and (c) of the Commercial Computer Software - Restricted
 Rights clause in FAR 52.227-19.
  
 Gaussian, Inc.
 340 Quinnipiac St., Bldg. 40, Wallingford CT 06492
  
  
 ---------------------------------------------------------------
 Warning -- This program may not be used in any manner that
 competes with the business of Gaussian, Inc. or will provide
 assistance to any competitor of Gaussian, Inc.  The licensee
 of this program is prohibited from giving any competitor of
 Gaussian, Inc. access to this program.  By using this program,
 the user acknowledges that Gaussian, Inc. is engaged in the
 business of creating and licensing software in the field of
 computational chemistry and represents and warrants to the
 licensee that it is not a competitor of Gaussian, Inc. and that
 it will not use this program in any manner prohibited above.
 ---------------------------------------------------------------
  

 Cite this work as:
 Gaussian 09, Revision B.01,
 M. J. Frisch, G. W. Trucks, H. B. Schlegel, G. E. Scuseria, 
 M. A. Robb, J. R. Cheeseman, G. Scalmani, V. Barone, B. Mennucci, 
 G. A. Petersson, H. Nakatsuji, M. Caricato, X. Li, H. P. Hratchian, 
 A. F. Izmaylov, J. Bloino, G. Zheng, J. L. Sonnenberg, M. Hada, 
 M. Ehara, K. Toyota, R. Fukuda, J. Hasegawa, M. Ishida, T. Nakajima, 
 Y. Honda, O. Kitao, H. Nakai, T. Vreven, J. A. Montgomery, Jr., 
 J. E. Peralta, F. Ogliaro, M. Bearpark, J. J. Heyd, E. Brothers, 
 K. N. Kudin, V. N. Staroverov, T. Keith, R. Kobayashi, J. Normand, 
 K. Raghavachari, A. Rendell, J. C. Burant, S. S. Iyengar, J. Tomasi, 
 M. Cossi, N. Rega, J. M. Millam, M. Klene, J. E. Knox, J. B. Cross, 
 V. Bakken, C. Adamo, J. Jaramillo, R. Gomperts, R. E. Stratmann, 
 O. Yazyev, A. J. Austin, R. Cammi, C. Pomelli, J. W. Ochterski, 
 R. L. Martin, K. Morokuma, V. G. Zakrzewski, G. A. Voth, 
 P. Salvador, J. J. Dannenberg, S. Dapprich, A. D. Daniels, 
 O. Farkas, J. B. Foresman, J. V. Ortiz, J. Cioslowski, 
 and D. J. Fox, Gaussian, Inc., Wallingford CT, 2010.
 
 ******************************************
 Gaussian 09:  EM64L-G09RevB.01 12-Aug-2010
                20-Aug-2019 
 ******************************************
 %mem=500MW
 %nproc=7
 Will use up to    7 processors via shared memory.
 ----------------------------------------------------------------------
 #p scrf=(cpcm,solvent=water) opt Temperature=348.15 int=(grid=ultrafin
 e) CPHF=(grid=fine) freq rb3lyp/aug-cc-pvdz
 ----------------------------------------------------------------------
 1/14=-1,18=20,19=15,26=3,38=1,112=348150/1,3;
 2/9=110,12=2,17=6,18=5,40=1/2;
 3/5=16,7=10,11=2,16=1,25=1,30=1,70=2101,71=1,72=1,74=-5,75=-5,116=1/1,2,3;
 4//1;
 5/5=2,38=5,53=1,96=4/2;
 6/7=2,8=2,9=2,10=2,28=1/1;
 7//1,2,3,16;
 1/14=-1,18=20,19=15/3(2);
 2/9=110/2;
 99//99;
 2/9=110/2;
 3/5=16,7=10,11=2,16=1,25=1,30=1,70=2105,71=1,72=1,74=-5,75=-5,116=1/1,2,3;
 4/5=5,16=3/1;
 5/5=2,38=5,53=1,96=4/2;
 7//1,2,3,16;
 1/14=-1,18=20,19=15/3(-5);
 2/9=110/2;
 6/7=2,8=2,9=2,10=2,19=2,28=1/1;
 99/9=1/99;
 Leave Link    1 at Tue Aug 20 17:32:52 2019, MaxMem=  524288000 cpu:       0.3
 (Enter /home/ubuntu/g09/l101.exe)
 ---------------------------------
 o-NO2-Ph-OTf-RB3LYP-aug-cc-pVDZ--
 ---------------------------------
 Symbolic Z-matrix:
 Charge =  0 Multiplicity = 1
 C                    -3.07413  -2.06516  -0.29278 
 C                    -1.71412  -1.85218  -0.52641 
 C                    -1.18606  -0.56262  -0.44768 
 C                    -2.02733   0.51323  -0.12081 
 C                    -3.38361   0.29544   0.12876 
 C                    -3.90915  -0.9925    0.03389 
 H                    -3.47926  -3.07417  -0.3644 
 H                    -1.04492  -2.67557  -0.76945 
 S                     1.23636  -0.7162    0.54413 
 C                     2.68843   0.23419  -0.25076 
 O                     0.16801  -0.37715  -0.71942 
 O                     0.79894  -0.01644   1.76325 
 O                     1.5683   -2.15045   0.5422 
 F                     2.92729  -0.25267  -1.46682 
 F                     2.40556   1.52739  -0.31401 
 F                     3.74904   0.033     0.53624 
 H                    -4.97033  -1.15646   0.21691 
 N                    -1.53949   1.90375  -0.04952 
 O                    -2.10216   2.64785   0.74824 
 O                    -0.63367   2.23375  -0.80648 
 H                    -4.00733   1.14679   0.39128 
 
 NAtoms=     21 NQM=     21 NQMF=      0 NMic=      0 NMicF=      0 NTot=     21.
                    Isotopes and Nuclear Properties:
 (Nuclear quadrupole moments (NQMom) in fm**2, nuclear magnetic moments (NMagM)
  in nuclear magnetons)

  Atom         1           2           3           4           5           6           7           8           9          10
 IAtWgt=          12          12          12          12          12          12           1           1          32          12
 AtmWgt=  12.0000000  12.0000000  12.0000000  12.0000000  12.0000000  12.0000000   1.0078250   1.0078250  31.9720718  12.0000000
 NucSpn=           0           0           0           0           0           0           1           1           0           0
 AtZEff=   0.0000000   0.0000000   0.0000000   0.0000000   0.0000000   0.0000000   0.0000000   0.0000000   0.0000000   0.0000000
 NQMom=    0.0000000   0.0000000   0.0000000   0.0000000   0.0000000   0.0000000   0.0000000   0.0000000   0.0000000   0.0000000
 NMagM=    0.0000000   0.0000000   0.0000000   0.0000000   0.0000000   0.0000000   2.7928460   2.7928460   0.0000000   0.0000000

  Atom        11          12          13          14          15          16          17          18          19          20
 IAtWgt=          16          16          16          19          19          19           1          14          16          16
 AtmWgt=  15.9949146  15.9949146  15.9949146  18.9984033  18.9984033  18.9984033   1.0078250  14.0030740  15.9949146  15.9949146
 NucSpn=           0           0           0           1           1           1           1           2           0           0
 AtZEff=   0.0000000   0.0000000   0.0000000   0.0000000   0.0000000   0.0000000   0.0000000   0.0000000   0.0000000   0.0000000
 NQMom=    0.0000000   0.0000000   0.0000000   0.0000000   0.0000000   0.0000000   0.0000000   2.0440000   0.0000000   0.0000000
 NMagM=    0.0000000   0.0000000   0.0000000   2.6288670   2.6288670   2.6288670   2.7928460   0.4037610   0.0000000   0.0000000

  Atom        21
 IAtWgt=           1
 AtmWgt=   1.0078250
 NucSpn=           1
 AtZEff=   0.0000000
 NQMom=    0.0000000
 NMagM=    2.7928460
 Leave Link  101 at Tue Aug 20 17:32:52 2019, MaxMem=  524288000 cpu:       0.4
 (Enter /home/ubuntu/g09/l103.exe)

 GradGradGradGradGradGradGradGradGradGradGradGradGradGradGradGradGradGrad
 Berny optimization.
 Initialization pass.
                           ----------------------------
                           !    Initial Parameters    !
                           ! (Angstroms and Degrees)  !
 --------------------------                            --------------------------
 ! Name  Definition              Value          Derivative Info.                !
 --------------------------------------------------------------------------------
 ! R1    R(1,2)                  1.3963         estimate D2E/DX2                !
 ! R2    R(1,6)                  1.3981         estimate D2E/DX2                !
 ! R3    R(1,7)                  1.0897         estimate D2E/DX2                !
 ! R4    R(2,3)                  1.3957         estimate D2E/DX2                !
 ! R5    R(2,8)                  1.0885         estimate D2E/DX2                !
 ! R6    R(3,4)                  1.4043         estimate D2E/DX2                !
 ! R7    R(3,11)                 1.3935         estimate D2E/DX2                !
 ! R8    R(4,5)                  1.3961         estimate D2E/DX2                !
 ! R9    R(4,18)                 1.4753         estimate D2E/DX2                !
 ! R10   R(5,6)                  1.3943         estimate D2E/DX2                !
 ! R11   R(5,21)                 1.0875         estimate D2E/DX2                !
 ! R12   R(6,17)                 1.0893         estimate D2E/DX2                !
 ! R13   R(9,10)                 1.9088         estimate D2E/DX2                !
 ! R14   R(9,11)                 1.689          estimate D2E/DX2                !
 ! R15   R(9,12)                 1.4722         estimate D2E/DX2                !
 ! R16   R(9,13)                 1.4722         estimate D2E/DX2                !
 ! R17   R(10,14)                1.3315         estimate D2E/DX2                !
 ! R18   R(10,15)                1.3253         estimate D2E/DX2                !
 ! R19   R(10,16)                1.3359         estimate D2E/DX2                !
 ! R20   R(18,19)                1.2275         estimate D2E/DX2                !
 ! R21   R(18,20)                1.2257         estimate D2E/DX2                !
 ! A1    A(2,1,6)              120.2534         estimate D2E/DX2                !
 ! A2    A(2,1,7)              119.4976         estimate D2E/DX2                !
 ! A3    A(6,1,7)              120.2489         estimate D2E/DX2                !
 ! A4    A(1,2,3)              120.001          estimate D2E/DX2                !
 ! A5    A(1,2,8)              121.3855         estimate D2E/DX2                !
 ! A6    A(3,2,8)              118.6134         estimate D2E/DX2                !
 ! A7    A(2,3,4)              119.6252         estimate D2E/DX2                !
 ! A8    A(2,3,11)             118.6609         estimate D2E/DX2                !
 ! A9    A(4,3,11)             121.7057         estimate D2E/DX2                !
 ! A10   A(3,4,5)              120.2693         estimate D2E/DX2                !
 ! A11   A(3,4,18)             122.3595         estimate D2E/DX2                !
 ! A12   A(5,4,18)             117.362          estimate D2E/DX2                !
 ! A13   A(4,5,6)              119.8745         estimate D2E/DX2                !
 ! A14   A(4,5,21)             118.5663         estimate D2E/DX2                !
 ! A15   A(6,5,21)             121.5589         estimate D2E/DX2                !
 ! A16   A(1,6,5)              119.9675         estimate D2E/DX2                !
 ! A17   A(1,6,17)             120.3742         estimate D2E/DX2                !
 ! A18   A(5,6,17)             119.6583         estimate D2E/DX2                !
 ! A19   A(10,9,11)             93.9965         estimate D2E/DX2                !
 ! A20   A(10,9,12)            109.5251         estimate D2E/DX2                !
 ! A21   A(10,9,13)            108.2402         estimate D2E/DX2                !
 ! A22   A(11,9,12)            109.6423         estimate D2E/DX2                !
 ! A23   A(11,9,13)            109.7065         estimate D2E/DX2                !
 ! A24   A(12,9,13)            122.0845         estimate D2E/DX2                !
 ! A25   A(9,10,14)            109.5566         estimate D2E/DX2                !
 ! A26   A(9,10,15)            110.0809         estimate D2E/DX2                !
 ! A27   A(9,10,16)            106.4773         estimate D2E/DX2                !
 ! A28   A(14,10,15)           110.5789         estimate D2E/DX2                !
 ! A29   A(14,10,16)           109.9097         estimate D2E/DX2                !
 ! A30   A(15,10,16)           110.1524         estimate D2E/DX2                !
 ! A31   A(3,11,9)             116.2336         estimate D2E/DX2                !
 ! A32   A(4,18,19)            116.8196         estimate D2E/DX2                !
 ! A33   A(4,18,20)            117.9222         estimate D2E/DX2                !
 ! A34   A(19,18,20)           125.2339         estimate D2E/DX2                !
 ! D1    D(6,1,2,3)             -0.6582         estimate D2E/DX2                !
 ! D2    D(6,1,2,8)            179.2077         estimate D2E/DX2                !
 ! D3    D(7,1,2,3)            179.503          estimate D2E/DX2                !
 ! D4    D(7,1,2,8)             -0.6311         estimate D2E/DX2                !
 ! D5    D(2,1,6,5)             -0.0731         estimate D2E/DX2                !
 ! D6    D(2,1,6,17)          -179.9771         estimate D2E/DX2                !
 ! D7    D(7,1,6,5)            179.7644         estimate D2E/DX2                !
 ! D8    D(7,1,6,17)            -0.1396         estimate D2E/DX2                !
 ! D9    D(1,2,3,4)              0.5846         estimate D2E/DX2                !
 ! D10   D(1,2,3,11)          -178.3866         estimate D2E/DX2                !
 ! D11   D(8,2,3,4)           -179.285          estimate D2E/DX2                !
 ! D12   D(8,2,3,11)             1.7438         estimate D2E/DX2                !
 ! D13   D(2,3,4,5)              0.2157         estimate D2E/DX2                !
 ! D14   D(2,3,4,18)          -178.6518         estimate D2E/DX2                !
 ! D15   D(11,3,4,5)           179.1546         estimate D2E/DX2                !
 ! D16   D(11,3,4,18)            0.2871         estimate D2E/DX2                !
 ! D17   D(2,3,11,9)           -81.5273         estimate D2E/DX2                !
 ! D18   D(4,3,11,9)            99.524          estimate D2E/DX2                !
 ! D19   D(3,4,5,6)             -0.945          estimate D2E/DX2                !
 ! D20   D(3,4,5,21)           179.2701         estimate D2E/DX2                !
 ! D21   D(18,4,5,6)           177.9778         estimate D2E/DX2                !
 ! D22   D(18,4,5,21)           -1.8071         estimate D2E/DX2                !
 ! D23   D(3,4,18,19)         -149.3941         estimate D2E/DX2                !
 ! D24   D(3,4,18,20)           32.3056         estimate D2E/DX2                !
 ! D25   D(5,4,18,19)           31.7073         estimate D2E/DX2                !
 ! D26   D(5,4,18,20)         -146.593          estimate D2E/DX2                !
 ! D27   D(4,5,6,1)              0.8723         estimate D2E/DX2                !
 ! D28   D(4,5,6,17)          -179.2229         estimate D2E/DX2                !
 ! D29   D(21,5,6,1)          -179.3494         estimate D2E/DX2                !
 ! D30   D(21,5,6,17)            0.5554         estimate D2E/DX2                !
 ! D31   D(11,9,10,14)         -56.4372         estimate D2E/DX2                !
 ! D32   D(11,9,10,15)          65.3672         estimate D2E/DX2                !
 ! D33   D(11,9,10,16)        -175.2491         estimate D2E/DX2                !
 ! D34   D(12,9,10,14)        -168.9136         estimate D2E/DX2                !
 ! D35   D(12,9,10,15)         -47.1091         estimate D2E/DX2                !
 ! D36   D(12,9,10,16)          72.2746         estimate D2E/DX2                !
 ! D37   D(13,9,10,14)          55.8303         estimate D2E/DX2                !
 ! D38   D(13,9,10,15)         177.6348         estimate D2E/DX2                !
 ! D39   D(13,9,10,16)         -62.9815         estimate D2E/DX2                !
 ! D40   D(10,9,11,3)         -163.035          estimate D2E/DX2                !
 ! D41   D(12,9,11,3)          -50.6598         estimate D2E/DX2                !
 ! D42   D(13,9,11,3)           85.9687         estimate D2E/DX2                !
 --------------------------------------------------------------------------------
 Trust Radius=3.00D-01 FncErr=1.00D-07 GrdErr=1.00D-06
 Number of steps in this run=    107 maximum allowed number of steps=    126.
 GradGradGradGradGradGradGradGradGradGradGradGradGradGradGradGradGradGrad

 Leave Link  103 at Tue Aug 20 17:32:52 2019, MaxMem=  524288000 cpu:       0.0
 (Enter /home/ubuntu/g09/l202.exe)
                          Input orientation:                          
 ---------------------------------------------------------------------
 Center     Atomic      Atomic             Coordinates (Angstroms)
 Number     Number       Type             X           Y           Z
 ---------------------------------------------------------------------
      1          6           0       -3.074130   -2.065160   -0.292780
      2          6           0       -1.714120   -1.852180   -0.526410
      3          6           0       -1.186060   -0.562620   -0.447680
      4          6           0       -2.027330    0.513230   -0.120810
      5          6           0       -3.383610    0.295440    0.128760
      6          6           0       -3.909150   -0.992500    0.033890
      7          1           0       -3.479260   -3.074170   -0.364400
      8          1           0       -1.044920   -2.675570   -0.769450
      9         16           0        1.236360   -0.716200    0.544130
     10          6           0        2.688430    0.234190   -0.250760
     11          8           0        0.168010   -0.377150   -0.719420
     12          8           0        0.798940   -0.016440    1.763250
     13          8           0        1.568300   -2.150450    0.542200
     14          9           0        2.927290   -0.252670   -1.466820
     15          9           0        2.405560    1.527390   -0.314010
     16          9           0        3.749040    0.033000    0.536240
     17          1           0       -4.970330   -1.156460    0.216910
     18          7           0       -1.539490    1.903750   -0.049520
     19          8           0       -2.102160    2.647850    0.748240
     20          8           0       -0.633670    2.233750   -0.806480
     21          1           0       -4.007330    1.146790    0.391280
 ---------------------------------------------------------------------
                    Distance matrix (angstroms):
                    1          2          3          4          5
     1  C    0.000000
     2  C    1.396270   0.000000
     3  C    2.417939   1.395712   0.000000
     4  C    2.788092   2.420284   1.404291   0.000000
     5  C    2.417831   2.797984   2.428534   1.396142   0.000000
     6  C    1.398060   2.423044   2.798558   2.415037   1.394268
     7  H    1.089661   2.152958   3.401997   3.877741   3.406850
     8  H    2.171982   1.088517   2.141965   3.399163   3.886277
     9  S    4.593521   3.337939   2.622097   3.550397   4.747638
    10  C    6.204504   4.879689   3.960474   4.725795   6.084197
    11  O    3.680064   2.399037   1.393466   2.443487   3.712922
    12  O    4.839957   3.863671   3.021051   3.437737   4.501394
    13  O    4.717692   3.464848   3.329800   4.523641   5.538477
    14  F    6.378129   4.998549   4.249043   5.191012   6.532516
    15  F    6.552394   5.332764   4.157613   4.551523   5.935338
    16  F    7.186459   5.876159   5.067354   5.833420   7.149099
    17  H    2.163584   3.411664   3.887805   3.400466   2.152548
    18  N    4.262223   3.790109   2.523178   1.475336   2.453411
    19  O    4.923506   4.693142   3.546348   2.305960   2.749491
    20  O    4.969946   4.235639   2.872901   2.317891   3.491975
    21  H    3.414004   3.885201   3.403748   2.141036   1.087539
                    6          7          8          9         10
     6  C    0.000000
     7  H    2.162589   0.000000
     8  H    3.417878   2.499792   0.000000
     9  S    5.178123   5.350002   3.281594   0.000000
    10  C    6.716685   6.999897   4.761685   1.908821   0.000000
    11  O    4.191583   4.550004   2.599315   1.689049   2.635507
    12  O    5.109745   5.672707   4.109180   1.472160   2.772945
    13  O    5.621538   5.210858   2.970706   1.472162   2.751361
    14  F    7.038209   7.086612   4.704808   2.667963   1.331499
    15  F    6.807822   7.470475   5.456932   2.671541   1.325286
    16  F    7.742860   7.919216   5.658907   2.622008   1.335942
    17  H    1.089258   2.497764   4.323129   6.230883   7.798027
    18  N    3.743062   5.351780   4.661874   3.862888   4.550081
    19  O    4.126458   5.989648   5.635596   4.743860   5.456511
    20  O    4.673722   6.038777   4.926654   3.744778   3.917067
    21  H    2.171158   4.320465   4.973289   5.566900   6.788097
                   11         12         13         14         15
    11  O    0.000000
    12  O    2.586858   0.000000
    13  O    2.587874   2.576214   0.000000
    14  F    2.861421   3.875439   3.079705   0.000000
    15  F    2.966186   3.046251   3.867894   2.183984   0.000000
    16  F    3.816894   3.195479   3.085955   2.183834   2.181986
    17  H    5.280774   6.080731   6.621745   8.125527   7.866936
    18  N    2.926914   3.527254   5.142473   5.158586   3.971778
    19  O    4.056886   4.067563   6.044701   6.214087   4.764803
    20  O    2.732594   3.703949   5.088106   4.393036   3.158859
    21  H    4.581431   5.131826   6.479369   7.314368   6.462774
                   16         17         18         19         20
    16  F    0.000000
    17  H    8.805918   0.000000
    18  N    5.640157   4.605055   0.000000
    19  O    6.412404   4.793901   1.227478   0.000000
    20  O    5.084717   5.598881   1.225724   2.178324   0.000000
    21  H    7.837271   2.502546   2.618688   2.451586   3.741349
                   21
    21  H    0.000000
 Stoichiometry    C7H4F3NO5S
 Framework group  C1[X(C7H4F3NO5S)]
 Deg. of freedom    57
 Full point group                 C1      NOp   1
 Largest Abelian subgroup         C1      NOp   1
 Largest concise Abelian subgroup C1      NOp   1
                         Standard orientation:                         
 ---------------------------------------------------------------------
 Center     Atomic      Atomic             Coordinates (Angstroms)
 Number     Number       Type             X           Y           Z
 ---------------------------------------------------------------------
      1          6           0       -3.074130   -2.065161   -0.292780
      2          6           0       -1.714120   -1.852180   -0.526410
      3          6           0       -1.186060   -0.562620   -0.447680
      4          6           0       -2.027330    0.513230   -0.120810
      5          6           0       -3.383610    0.295439    0.128760
      6          6           0       -3.909150   -0.992501    0.033890
      7          1           0       -3.479260   -3.074171   -0.364400
      8          1           0       -1.044920   -2.675570   -0.769450
      9         16           0        1.236360   -0.716200    0.544130
     10          6           0        2.688430    0.234191   -0.250760
     11          8           0        0.168010   -0.377150   -0.719420
     12          8           0        0.798940   -0.016440    1.763250
     13          8           0        1.568300   -2.150450    0.542200
     14          9           0        2.927290   -0.252669   -1.466820
     15          9           0        2.405559    1.527391   -0.314010
     16          9           0        3.749040    0.033001    0.536240
     17          1           0       -4.970330   -1.156461    0.216910
     18          7           0       -1.539491    1.903750   -0.049520
     19          8           0       -2.102161    2.647850    0.748240
     20          8           0       -0.633671    2.233750   -0.806480
     21          1           0       -4.007331    1.146789    0.391280
 ---------------------------------------------------------------------
 Rotational constants (GHZ):      0.7640875      0.3213747      0.2609326
 Leave Link  202 at Tue Aug 20 17:32:52 2019, MaxMem=  524288000 cpu:       0.0
 (Enter /home/ubuntu/g09/l301.exe)
 Standard basis: Aug-CC-pVDZ (5D, 7F)
 Ernie: Thresh=  0.10000D-02 Tol=  0.10000D-05 Strict=F.
 Ernie:  42 primitive shells out of 481 were deleted.
 There are   431 symmetry adapted basis functions of A   symmetry.
 Integral buffers will be    131072 words long.
 Raffenetti 2 integral format.
 Two-electron integral symmetry is turned on.
   431 basis functions,   813 primitive gaussians,   465 cartesian basis functions
    68 alpha electrons       68 beta electrons
       nuclear repulsion energy      1498.3833593026 Hartrees.
 IExCor=  402 DFT=T Ex+Corr=B3LYP ExCW=0 ScaHFX=  0.200000
 ScaDFX=  0.800000  0.720000  1.000000  0.810000 ScalE2=  1.000000  1.000000
 IRadAn=      5 IRanWt=     -1 IRanGd=            0 ICorTp=0
 NAtoms=   21 NActive=   21 NUniq=   21 SFac= 1.00D+00 NAtFMM=   50 NAOKFM=F Big=F
 ------------------------------------------------------------------------------
 Polarizable Continuum Model (PCM)
 =================================
 Model                : C-PCM.
 Atomic radii         : UFF (Universal Force Field).
 Polarization charges : Total charges.
 Charge compensation  : None.
 Solution method      : Matrix inversion.
 Cavity type          : Scaled VdW (van der Waals Surface) (Alpha=1.100).
 Cavity algorithm     : GePol (No added spheres)
                        Default sphere list used, NSphG=   21.
                        Lebedev-Laikov grids with approx.  5.0 points / Ang**2.
                        Smoothing algorithm: Karplus/York (Gamma=1.0000).
                        Polarization charges: spherical gaussians, with
                                              point-specific exponents (IZeta= 3).
                        Self-potential: point-specific (ISelfS= 7).
                        Self-field    : sphere-specific E.n sum rule (ISelfD= 2).
 1st derivatives      : Analytical E(r).r(x)/FMM algorithm (CHGder, D1EAlg=3).
                        Cavity 1st derivative terms included.
 Solvent              : Water, Eps=  78.355300 Eps(inf)=   1.777849
 ------------------------------------------------------------------------------
 GePol: Number of generator spheres                  =      21
 GePol: Total number of spheres                      =      21
 GePol: Number of exposed spheres                    =      21 (100.00%)
 GePol: Number of points                             =    2088
 GePol: Average weight of points                     =       0.13
 GePol: Minimum weight of points                     =   0.45D-10
 GePol: Maximum weight of points                     =    0.20577
 GePol: Number of points with low weight             =     106
 GePol: Fraction of low-weight points (<1% of avg)   =       5.08%
 GePol: Cavity surface area                          =    267.843 Ang**2
 GePol: Cavity volume                                =    280.694 Ang**3
 Leave Link  301 at Tue Aug 20 17:32:52 2019, MaxMem=  524288000 cpu:       0.4
 (Enter /home/ubuntu/g09/l302.exe)
 NPDir=0 NMtPBC=     1 NCelOv=     1 NCel=       1 NClECP=     1 NCelD=      1
         NCelK=      1 NCelE2=     1 NClLst=     1 CellRange=     0.0.
 One-electron integrals computed using PRISM.
 NBasis=   431 RedAO= T  NBF=   431
 NBsUse=   431 1.00D-06 NBFU=   431
 Precomputing XC quadrature grid using
 IXCGrd= 2 IRadAn=           5 IRanWt=          -1 IRanGd=           0 AccXCQ= 0.00D+00.
 NRdTot=    1808 NPtTot=      489412 NUsed=      502354 NTot=      502386
 NSgBfM=   464   464   464   464   464 NAtAll=    21    21.
 Leave Link  302 at Tue Aug 20 17:32:53 2019, MaxMem=  524288000 cpu:       4.5
 (Enter /home/ubuntu/g09/l303.exe)
 DipDrv:  MaxL=1.
 Leave Link  303 at Tue Aug 20 17:32:53 2019, MaxMem=  524288000 cpu:       0.6
 (Enter /home/ubuntu/g09/l401.exe)
 Harris functional with IExCor=  402 diagonalized for initial guess.
 ExpMin= 2.97D-02 ExpMax= 1.11D+05 ExpMxC= 1.07D+03 IAcc=3 IRadAn=         5 AccDes= 0.00D+00
 HarFok:  IExCor=  402 AccDes= 0.00D+00 IRadAn=         5 IDoV= 1
 ScaDFX=  1.000000  1.000000  1.000000  1.000000
 FoFCou: FMM=F IPFlag=           0 FMFlag=      100000 FMFlg1=           0
         NFxFlg=           0 DoJE=T BraDBF=F KetDBF=T FulRan=T
         Omega=  0.000000  0.000000  1.000000  0.000000  0.000000 ICntrl=     500 IOpCl=  0
         NMat0=    1 NMatS0=    1 NMatT0=    0 NMatD0=    1 NMtDS0=    0 NMtDT0=    0
         I1Cent=           4 NGrid=           0.
 Petite list used in FoFCou.
 Harris En= -1397.69621539099    
 Initial guess orbital symmetries:
       Occupied  (A) (A) (A) (A) (A) (A) (A) (A) (A) (A) (A) (A)
                 (A) (A) (A) (A) (A) (A) (A) (A) (A) (A) (A) (A)
                 (A) (A) (A) (A) (A) (A) (A) (A) (A) (A) (A) (A)
                 (A) (A) (A) (A) (A) (A) (A) (A) (A) (A) (A) (A)
                 (A) (A) (A) (A) (A) (A) (A) (A) (A) (A) (A) (A)
                 (A) (A) (A) (A) (A) (A) (A) (A)
       Virtual   (A) (A) (A) (A) (A) (A) (A) (A) (A) (A) (A) (A)
                 (A) (A) (A) (A) (A) (A) (A) (A) (A) (A) (A) (A)
                 (A) (A) (A) (A) (A) (A) (A) (A) (A) (A) (A) (A)
                 (A) (A) (A) (A) (A) (A) (A) (A) (A) (A) (A) (A)
                 (A) (A) (A) (A) (A) (A) (A) (A) (A) (A) (A) (A)
                 (A) (A) (A) (A) (A) (A) (A) (A) (A) (A) (A) (A)
                 (A) (A) (A) (A) (A) (A) (A) (A) (A) (A) (A) (A)
                 (A) (A) (A) (A) (A) (A) (A) (A) (A) (A) (A) (A)
                 (A) (A) (A) (A) (A) (A) (A) (A) (A) (A) (A) (A)
                 (A) (A) (A) (A) (A) (A) (A) (A) (A) (A) (A) (A)
                 (A) (A) (A) (A) (A) (A) (A) (A) (A) (A) (A) (A)
                 (A) (A) (A) (A) (A) (A) (A) (A) (A) (A) (A) (A)
                 (A) (A) (A) (A) (A) (A) (A) (A) (A) (A) (A) (A)
                 (A) (A) (A) (A) (A) (A) (A) (A) (A) (A) (A) (A)
                 (A) (A) (A) (A) (A) (A) (A) (A) (A) (A) (A) (A)
                 (A) (A) (A) (A) (A) (A) (A) (A) (A) (A) (A) (A)
                 (A) (A) (A) (A) (A) (A) (A) (A) (A) (A) (A) (A)
                 (A) (A) (A) (A) (A) (A) (A) (A) (A) (A) (A) (A)
                 (A) (A) (A) (A) (A) (A) (A) (A) (A) (A) (A) (A)
                 (A) (A) (A) (A) (A) (A) (A) (A) (A) (A) (A) (A)
                 (A) (A) (A) (A) (A) (A) (A) (A) (A) (A) (A) (A)
                 (A) (A) (A) (A) (A) (A) (A) (A) (A) (A) (A) (A)
                 (A) (A) (A) (A) (A) (A) (A) (A) (A) (A) (A) (A)
                 (A) (A) (A) (A) (A) (A) (A) (A) (A) (A) (A) (A)
                 (A) (A) (A) (A) (A) (A) (A) (A) (A) (A) (A) (A)
                 (A) (A) (A) (A) (A) (A) (A) (A) (A) (A) (A) (A)
                 (A) (A) (A) (A) (A) (A) (A) (A) (A) (A) (A) (A)
                 (A) (A) (A) (A) (A) (A) (A) (A) (A) (A) (A) (A)
                 (A) (A) (A) (A) (A) (A) (A) (A) (A) (A) (A) (A)
                 (A) (A) (A) (A) (A) (A) (A) (A) (A) (A) (A) (A)
                 (A) (A) (A)
 The electronic state of the initial guess is 1-A.
 Leave Link  401 at Tue Aug 20 17:32:58 2019, MaxMem=  524288000 cpu:      40.1
 (Enter /home/ubuntu/g09/l502.exe)
 Closed shell SCF:
 Requested convergence on RMS density matrix=1.00D-08 within 128 cycles.
 Requested convergence on MAX density matrix=1.00D-06.
 Requested convergence on             energy=1.00D-06.
 No special actions if energy rises.
 Using DIIS extrapolation, IDIIS=  1040.
 Integral symmetry usage will be decided dynamically.
       502152 words used for storage of precomputed grid.
 IEnd=     1175666 IEndB=     1175666 NGot=   524288000 MDV=   523345665
 LenX=   523345665 LenY=   523128975
 Fock matrices will be formed incrementally for  20 cycles.

 Cycle   1  Pass 1  IDiag  1:
 FoFCou: FMM=F IPFlag=           0 FMFlag=      100000 FMFlg1=           0
         NFxFlg=           0 DoJE=F BraDBF=F KetDBF=F FulRan=T
         Omega=  0.000000  0.000000  1.000000  0.000000  0.000000 ICntrl=       0 IOpCl=  0
         NMat0=    1 NMatS0=    1 NMatT0=    0 NMatD0=    1 NMtDS0=    0 NMtDT0=    0
         I1Cent=           0 NGrid=           0.
 Symmetry not used in FoFCou.
 E= -1397.11584031882    
 DIIS: error= 1.75D-02 at cycle   1 NSaved=   1.
 NSaved= 1 IEnMin= 1 EnMin= -1397.11584031882     IErMin= 1 ErrMin= 1.75D-02
 ErrMax= 1.75D-02 EMaxC= 1.00D-01 BMatC= 7.26D-01 BMatP= 7.26D-01
 IDIUse=3 WtCom= 8.25D-01 WtEn= 1.75D-01
 Coeff-Com:  0.100D+01
 Coeff-En:   0.100D+01
 Coeff:      0.100D+01
 Gap=     0.266 Goal=   None    Shift=    0.000
 GapD=    0.266 DampG=1.000 DampE=0.500 DampFc=0.5000 IDamp=-1.
 Damping current iteration by 5.00D-01
 RMSDP=3.73D-02 MaxDP=2.35D+00              OVMax= 3.68D-01

 Cycle   2  Pass 1  IDiag  1:
 RMSU=  6.85D-03    CP:  8.57D-01
 E= -1397.05476479104     Delta-E=        0.061075527777 Rises=F Damp=T
 DIIS: error= 1.04D-02 at cycle   2 NSaved=   2.
 NSaved= 2 IEnMin= 1 EnMin= -1397.11584031882     IErMin= 2 ErrMin= 1.04D-02
 ErrMax= 1.04D-02 EMaxC= 1.00D-01 BMatC= 2.34D-01 BMatP= 7.26D-01
 IDIUse=3 WtCom= 8.96D-01 WtEn= 1.04D-01
 Coeff-Com:  0.347D+00 0.653D+00
 Coeff-En:   0.534D+00 0.466D+00
 Coeff:      0.367D+00 0.633D+00
 Gap=     0.224 Goal=   None    Shift=    0.000
 RMSDP=1.75D-02 MaxDP=1.19D+00 DE= 6.11D-02 OVMax= 2.88D-01

 Cycle   3  Pass 1  IDiag  1:
 RMSU=  4.25D-03    CP:  7.09D-01  9.71D-01
 E= -1397.66231322303     Delta-E=       -0.607548431985 Rises=F Damp=F
 DIIS: error= 5.91D-03 at cycle   3 NSaved=   3.
 NSaved= 3 IEnMin= 3 EnMin= -1397.66231322303     IErMin= 3 ErrMin= 5.91D-03
 ErrMax= 5.91D-03 EMaxC= 1.00D-01 BMatC= 4.91D-02 BMatP= 2.34D-01
 IDIUse=3 WtCom= 9.41D-01 WtEn= 5.91D-02
 Coeff-Com:  0.167D+00 0.362D+00 0.471D+00
 Coeff-En:   0.000D+00 0.000D+00 0.100D+01
 Coeff:      0.157D+00 0.341D+00 0.503D+00
 Gap=     0.180 Goal=   None    Shift=    0.000
 RMSDP=2.19D-03 MaxDP=1.04D-01 DE=-6.08D-01 OVMax= 5.02D-02

 Cycle   4  Pass 1  IDiag  1:
 RMSU=  1.07D-03    CP:  7.17D-01  9.11D-01  7.98D-01
 E= -1397.69417524699     Delta-E=       -0.031862023958 Rises=F Damp=F
 DIIS: error= 2.93D-03 at cycle   4 NSaved=   4.
 NSaved= 4 IEnMin= 4 EnMin= -1397.69417524699     IErMin= 4 ErrMin= 2.93D-03
 ErrMax= 2.93D-03 EMaxC= 1.00D-01 BMatC= 1.23D-02 BMatP= 4.91D-02
 IDIUse=3 WtCom= 9.71D-01 WtEn= 2.93D-02
 Coeff-Com:  0.204D-01 0.898D-01 0.326D+00 0.563D+00
 Coeff-En:   0.000D+00 0.000D+00 0.203D+00 0.797D+00
 Coeff:      0.198D-01 0.872D-01 0.323D+00 0.570D+00
 Gap=     0.174 Goal=   None    Shift=    0.000
 RMSDP=6.23D-04 MaxDP=4.58D-02 DE=-3.19D-02 OVMax= 2.55D-02

 Cycle   5  Pass 1  IDiag  1:
 RMSU=  4.02D-04    CP:  7.17D-01  8.96D-01  7.71D-01  9.12D-01
 E= -1397.70213157704     Delta-E=       -0.007956330056 Rises=F Damp=F
 DIIS: error= 8.06D-04 at cycle   5 NSaved=   5.
 NSaved= 5 IEnMin= 5 EnMin= -1397.70213157704     IErMin= 5 ErrMin= 8.06D-04
 ErrMax= 8.06D-04 EMaxC= 1.00D-01 BMatC= 1.42D-03 BMatP= 1.23D-02
 IDIUse=3 WtCom= 9.92D-01 WtEn= 8.06D-03
 Coeff-Com: -0.253D-02 0.241D-01 0.152D+00 0.351D+00 0.475D+00
 Coeff-En:   0.000D+00 0.000D+00 0.000D+00 0.750D-01 0.925D+00
 Coeff:     -0.251D-02 0.239D-01 0.151D+00 0.349D+00 0.479D+00
 Gap=     0.174 Goal=   None    Shift=    0.000
 RMSDP=4.05D-04 MaxDP=2.91D-02 DE=-7.96D-03 OVMax= 2.00D-02

 Cycle   6  Pass 1  IDiag  1:
 RMSU=  1.41D-04    CP:  7.15D-01  9.12D-01  7.88D-01  8.68D-01  6.36D-01
 E= -1397.70307748933     Delta-E=       -0.000945912283 Rises=F Damp=F
 DIIS: error= 5.82D-04 at cycle   6 NSaved=   6.
 NSaved= 6 IEnMin= 6 EnMin= -1397.70307748933     IErMin= 6 ErrMin= 5.82D-04
 ErrMax= 5.82D-04 EMaxC= 1.00D-01 BMatC= 3.75D-04 BMatP= 1.42D-03
 IDIUse=3 WtCom= 9.94D-01 WtEn= 5.82D-03
 Coeff-Com: -0.492D-02 0.494D-02 0.610D-01 0.167D+00 0.354D+00 0.419D+00
 Coeff-En:   0.000D+00 0.000D+00 0.000D+00 0.000D+00 0.209D+00 0.791D+00
 Coeff:     -0.489D-02 0.492D-02 0.607D-01 0.166D+00 0.353D+00 0.421D+00
 Gap=     0.174 Goal=   None    Shift=    0.000
 RMSDP=1.16D-04 MaxDP=5.42D-03 DE=-9.46D-04 OVMax= 9.97D-03

 Cycle   7  Pass 1  IDiag  1:
 RMSU=  6.41D-05    CP:  7.15D-01  9.15D-01  7.93D-01  8.53D-01  6.32D-01
                    CP:  7.85D-01
 E= -1397.70334189450     Delta-E=       -0.000264405171 Rises=F Damp=F
 DIIS: error= 1.58D-04 at cycle   7 NSaved=   7.
 NSaved= 7 IEnMin= 7 EnMin= -1397.70334189450     IErMin= 7 ErrMin= 1.58D-04
 ErrMax= 1.58D-04 EMaxC= 1.00D-01 BMatC= 3.78D-05 BMatP= 3.75D-04
 IDIUse=3 WtCom= 9.98D-01 WtEn= 1.58D-03
 Coeff-Com: -0.277D-02 0.764D-03 0.200D-01 0.599D-01 0.166D+00 0.283D+00
 Coeff-Com:  0.472D+00
 Coeff-En:   0.000D+00 0.000D+00 0.000D+00 0.000D+00 0.000D+00 0.881D-01
 Coeff-En:   0.912D+00
 Coeff:     -0.276D-02 0.763D-03 0.200D-01 0.598D-01 0.166D+00 0.283D+00
 Coeff:      0.473D+00
 Gap=     0.174 Goal=   None    Shift=    0.000
 RMSDP=5.04D-05 MaxDP=3.59D-03 DE=-2.64D-04 OVMax= 2.11D-03

 Cycle   8  Pass 1  IDiag  1:
 RMSU=  2.20D-05    CP:  7.15D-01  9.14D-01  7.93D-01  8.58D-01  6.47D-01
                    CP:  7.14D-01  6.33D-01
 E= -1397.70337287959     Delta-E=       -0.000030985093 Rises=F Damp=F
 DIIS: error= 2.41D-05 at cycle   8 NSaved=   8.
 NSaved= 8 IEnMin= 8 EnMin= -1397.70337287959     IErMin= 8 ErrMin= 2.41D-05
 ErrMax= 2.41D-05 EMaxC= 1.00D-01 BMatC= 1.48D-06 BMatP= 3.78D-05
 IDIUse=1 WtCom= 1.00D+00 WtEn= 0.00D+00
 Coeff-Com: -0.112D-02-0.301D-03 0.401D-02 0.143D-01 0.534D-01 0.108D+00
 Coeff-Com:  0.237D+00 0.585D+00
 Coeff:     -0.112D-02-0.301D-03 0.401D-02 0.143D-01 0.534D-01 0.108D+00
 Coeff:      0.237D+00 0.585D+00
 Gap=     0.174 Goal=   None    Shift=    0.000
 RMSDP=1.22D-05 MaxDP=6.98D-04 DE=-3.10D-05 OVMax= 3.23D-04

 Cycle   9  Pass 1  IDiag  1:
 RMSU=  6.28D-06    CP:  7.15D-01  9.14D-01  7.93D-01  8.58D-01  6.46D-01
                    CP:  7.24D-01  6.40D-01  7.55D-01
 E= -1397.70337391684     Delta-E=       -0.000001037255 Rises=F Damp=F
 DIIS: error= 8.61D-06 at cycle   9 NSaved=   9.
 NSaved= 9 IEnMin= 9 EnMin= -1397.70337391684     IErMin= 9 ErrMin= 8.61D-06
 ErrMax= 8.61D-06 EMaxC= 1.00D-01 BMatC= 2.53D-07 BMatP= 1.48D-06
 IDIUse=1 WtCom= 1.00D+00 WtEn= 0.00D+00
 Coeff-Com: -0.296D-03-0.158D-03-0.332D-04 0.906D-03 0.103D-01 0.271D-01
 Coeff-Com:  0.775D-01 0.333D+00 0.551D+00
 Coeff:     -0.296D-03-0.158D-03-0.332D-04 0.906D-03 0.103D-01 0.271D-01
 Coeff:      0.775D-01 0.333D+00 0.551D+00
 Gap=     0.174 Goal=   None    Shift=    0.000
 RMSDP=3.64D-06 MaxDP=1.82D-04 DE=-1.04D-06 OVMax= 1.55D-04

 Cycle  10  Pass 1  IDiag  1:
 RMSU=  2.02D-06    CP:  7.15D-01  9.14D-01  7.93D-01  8.58D-01  6.46D-01
                    CP:  7.24D-01  6.41D-01  7.67D-01  8.07D-01
 E= -1397.70337409894     Delta-E=       -0.000000182097 Rises=F Damp=F
 DIIS: error= 4.19D-06 at cycle  10 NSaved=  10.
 NSaved=10 IEnMin=10 EnMin= -1397.70337409894     IErMin=10 ErrMin= 4.19D-06
 ErrMax= 4.19D-06 EMaxC= 1.00D-01 BMatC= 3.98D-08 BMatP= 2.53D-07
 IDIUse=1 WtCom= 1.00D+00 WtEn= 0.00D+00
 Coeff-Com: -0.586D-04-0.589D-04-0.498D-03-0.110D-02-0.329D-04 0.380D-02
 Coeff-Com:  0.192D-01 0.128D+00 0.339D+00 0.511D+00
 Coeff:     -0.586D-04-0.589D-04-0.498D-03-0.110D-02-0.329D-04 0.380D-02
 Coeff:      0.192D-01 0.128D+00 0.339D+00 0.511D+00
 Gap=     0.174 Goal=   None    Shift=    0.000
 RMSDP=1.64D-06 MaxDP=1.01D-04 DE=-1.82D-07 OVMax= 4.33D-05

 Cycle  11  Pass 1  IDiag  1:
 RMSU=  6.59D-07    CP:  7.15D-01  9.14D-01  7.93D-01  8.58D-01  6.47D-01
                    CP:  7.25D-01  6.41D-01  7.85D-01  7.82D-01  6.97D-01
 E= -1397.70337412878     Delta-E=       -0.000000029839 Rises=F Damp=F
 DIIS: error= 1.24D-06 at cycle  11 NSaved=  11.
 NSaved=11 IEnMin=11 EnMin= -1397.70337412878     IErMin=11 ErrMin= 1.24D-06
 ErrMax= 1.24D-06 EMaxC= 1.00D-01 BMatC= 3.16D-09 BMatP= 3.98D-08
 IDIUse=1 WtCom= 1.00D+00 WtEn= 0.00D+00
 Coeff-Com: -0.957D-05-0.134D-04-0.279D-03-0.680D-03-0.951D-03-0.235D-03
 Coeff-Com:  0.422D-02 0.425D-01 0.146D+00 0.285D+00 0.524D+00
 Coeff:     -0.957D-05-0.134D-04-0.279D-03-0.680D-03-0.951D-03-0.235D-03
 Coeff:      0.422D-02 0.425D-01 0.146D+00 0.285D+00 0.524D+00
 Gap=     0.174 Goal=   None    Shift=    0.000
 RMSDP=4.06D-07 MaxDP=1.98D-05 DE=-2.98D-08 OVMax= 1.64D-05

 Cycle  12  Pass 1  IDiag  1:
 RMSU=  2.23D-07    CP:  7.15D-01  9.14D-01  7.93D-01  8.58D-01  6.47D-01
                    CP:  7.26D-01  6.42D-01  7.83D-01  7.99D-01  6.99D-01
                    CP:  8.80D-01
 E= -1397.70337413094     Delta-E=       -0.000000002158 Rises=F Damp=F
 DIIS: error= 5.44D-07 at cycle  12 NSaved=  12.
 NSaved=12 IEnMin=12 EnMin= -1397.70337413094     IErMin=12 ErrMin= 5.44D-07
 ErrMax= 5.44D-07 EMaxC= 1.00D-01 BMatC= 6.82D-10 BMatP= 3.16D-09
 IDIUse=1 WtCom= 1.00D+00 WtEn= 0.00D+00
 Coeff-Com:  0.290D-05 0.482D-05-0.915D-04-0.229D-03-0.592D-03-0.751D-03
 Coeff-Com: -0.347D-03 0.480D-02 0.346D-01 0.877D-01 0.338D+00 0.537D+00
 Coeff:      0.290D-05 0.482D-05-0.915D-04-0.229D-03-0.592D-03-0.751D-03
 Coeff:     -0.347D-03 0.480D-02 0.346D-01 0.877D-01 0.338D+00 0.537D+00
 Gap=     0.174 Goal=   None    Shift=    0.000
 RMSDP=1.96D-07 MaxDP=8.17D-06 DE=-2.16D-09 OVMax= 7.99D-06

 Cycle  13  Pass 1  IDiag  1:
 RMSU=  8.21D-08    CP:  7.15D-01  9.14D-01  7.93D-01  8.58D-01  6.47D-01
                    CP:  7.26D-01  6.42D-01  7.83D-01  8.06D-01  7.27D-01
                    CP:  8.62D-01  6.94D-01
 E= -1397.70337413145     Delta-E=       -0.000000000515 Rises=F Damp=F
 DIIS: error= 1.26D-07 at cycle  13 NSaved=  13.
 NSaved=13 IEnMin=13 EnMin= -1397.70337413145     IErMin=13 ErrMin= 1.26D-07
 ErrMax= 1.26D-07 EMaxC= 1.00D-01 BMatC= 4.27D-11 BMatP= 6.82D-10
 IDIUse=1 WtCom= 1.00D+00 WtEn= 0.00D+00
 Coeff-Com:  0.244D-05 0.231D-05-0.227D-04-0.525D-04-0.239D-03-0.431D-03
 Coeff-Com: -0.759D-03-0.315D-02 0.540D-04 0.869D-02 0.105D+00 0.265D+00
 Coeff-Com:  0.626D+00
 Coeff:      0.244D-05 0.231D-05-0.227D-04-0.525D-04-0.239D-03-0.431D-03
 Coeff:     -0.759D-03-0.315D-02 0.540D-04 0.869D-02 0.105D+00 0.265D+00
 Coeff:      0.626D+00
 Gap=     0.174 Goal=   None    Shift=    0.000
 RMSDP=6.20D-08 MaxDP=4.36D-06 DE=-5.15D-10 OVMax= 2.70D-06

 Cycle  14  Pass 1  IDiag  1:
 RMSU=  3.53D-08    CP:  7.15D-01  9.14D-01  7.93D-01  8.58D-01  6.47D-01
                    CP:  7.26D-01  6.42D-01  7.84D-01  8.07D-01  7.26D-01
                    CP:  8.76D-01  6.95D-01  9.91D-01
 E= -1397.70337413152     Delta-E=       -0.000000000069 Rises=F Damp=F
 DIIS: error= 5.42D-08 at cycle  14 NSaved=  14.
 NSaved=14 IEnMin=14 EnMin= -1397.70337413152     IErMin=14 ErrMin= 5.42D-08
 ErrMax= 5.42D-08 EMaxC= 1.00D-01 BMatC= 6.90D-12 BMatP= 4.27D-11
 IDIUse=1 WtCom= 1.00D+00 WtEn= 0.00D+00
 Coeff-Com:  0.964D-06 0.100D-05-0.157D-05-0.140D-05-0.587D-04-0.137D-03
 Coeff-Com: -0.309D-03-0.202D-02-0.339D-02-0.504D-02 0.170D-01 0.807D-01
 Coeff-Com:  0.356D+00 0.557D+00
 Coeff:      0.964D-06 0.100D-05-0.157D-05-0.140D-05-0.587D-04-0.137D-03
 Coeff:     -0.309D-03-0.202D-02-0.339D-02-0.504D-02 0.170D-01 0.807D-01
 Coeff:      0.356D+00 0.557D+00
 Gap=     0.174 Goal=   None    Shift=    0.000
 RMSDP=3.04D-08 MaxDP=1.99D-06 DE=-6.91D-11 OVMax= 1.34D-06

 Cycle  15  Pass 1  IDiag  1:
 RMSU=  1.14D-08    CP:  7.15D-01  9.14D-01  7.93D-01  8.58D-01  6.47D-01
                    CP:  7.26D-01  6.42D-01  7.83D-01  8.07D-01  7.26D-01
                    CP:  8.76D-01  7.35D-01  1.03D+00  7.89D-01
 E= -1397.70337413155     Delta-E=       -0.000000000026 Rises=F Damp=F
 DIIS: error= 1.53D-08 at cycle  15 NSaved=  15.
 NSaved=15 IEnMin=15 EnMin= -1397.70337413155     IErMin=15 ErrMin= 1.53D-08
 ErrMax= 1.53D-08 EMaxC= 1.00D-01 BMatC= 5.82D-13 BMatP= 6.90D-12
 IDIUse=1 WtCom= 1.00D+00 WtEn= 0.00D+00
 Coeff-Com:  0.209D-06 0.194D-06 0.261D-05 0.711D-05 0.274D-05-0.149D-04
 Coeff-Com: -0.662D-04-0.720D-03-0.198D-02-0.407D-02-0.512D-02 0.857D-02
 Coeff-Com:  0.115D+00 0.274D+00 0.615D+00
 Coeff:      0.209D-06 0.194D-06 0.261D-05 0.711D-05 0.274D-05-0.149D-04
 Coeff:     -0.662D-04-0.720D-03-0.198D-02-0.407D-02-0.512D-02 0.857D-02
 Coeff:      0.115D+00 0.274D+00 0.615D+00
 Gap=     0.174 Goal=   None    Shift=    0.000
 RMSDP=1.07D-08 MaxDP=4.52D-07 DE=-2.59D-11 OVMax= 5.80D-07

 Cycle  16  Pass 1  IDiag  1:
 RMSU=  4.40D-09    CP:  7.15D-01  9.14D-01  7.93D-01  8.58D-01  6.47D-01
                    CP:  7.26D-01  6.42D-01  7.83D-01  8.08D-01  7.27D-01
                    CP:  8.77D-01  7.26D-01  1.05D+00  8.58D-01  8.07D-01
 E= -1397.70337413151     Delta-E=        0.000000000035 Rises=F Damp=F
 DIIS: error= 5.23D-09 at cycle  16 NSaved=  16.
 NSaved=16 IEnMin=15 EnMin= -1397.70337413155     IErMin=16 ErrMin= 5.23D-09
 ErrMax= 5.23D-09 EMaxC= 1.00D-01 BMatC= 6.99D-14 BMatP= 5.82D-13
 IDIUse=1 WtCom= 1.00D+00 WtEn= 0.00D+00
 Coeff-Com: -0.151D-07-0.528D-07 0.138D-05 0.306D-05 0.924D-05 0.120D-04
 Coeff-Com:  0.123D-04-0.376D-04-0.392D-03-0.102D-02-0.458D-02-0.703D-02
 Coeff-Com:  0.436D-02 0.321D-01 0.280D+00 0.696D+00
 Coeff:     -0.151D-07-0.528D-07 0.138D-05 0.306D-05 0.924D-05 0.120D-04
 Coeff:      0.123D-04-0.376D-04-0.392D-03-0.102D-02-0.458D-02-0.703D-02
 Coeff:      0.436D-02 0.321D-01 0.280D+00 0.696D+00
 Gap=     0.174 Goal=   None    Shift=    0.000
 RMSDP=4.49D-09 MaxDP=2.85D-07 DE= 3.50D-11 OVMax= 1.81D-07

 Error on total polarization charges =  0.01331
 SCF Done:  E(RB3LYP) =  -1397.70337413     A.U. after   16 cycles
             Convg  =    0.4492D-08             -V/T =  2.0050
 KE= 1.390734215780D+03 PE=-6.291972572082D+03 EE= 2.005151622868D+03
 Leave Link  502 at Tue Aug 20 17:43:05 2019, MaxMem=  524288000 cpu:    4245.4
 (Enter /home/ubuntu/g09/l601.exe)
 Copying SCF densities to generalized density rwf, IOpCl= 0 IROHF=0.

 **********************************************************************

            Population analysis using the SCF density.

 **********************************************************************

 Orbital symmetries:
       Occupied  (A) (A) (A) (A) (A) (A) (A) (A) (A) (A) (A) (A)
                 (A) (A) (A) (A) (A) (A) (A) (A) (A) (A) (A) (A)
                 (A) (A) (A) (A) (A) (A) (A) (A) (A) (A) (A) (A)
                 (A) (A) (A) (A) (A) (A) (A) (A) (A) (A) (A) (A)
                 (A) (A) (A) (A) (A) (A) (A) (A) (A) (A) (A) (A)
                 (A) (A) (A) (A) (A) (A) (A) (A)
       Virtual   (A) (A) (A) (A) (A) (A) (A) (A) (A) (A) (A) (A)
                 (A) (A) (A) (A) (A) (A) (A) (A) (A) (A) (A) (A)
                 (A) (A) (A) (A) (A) (A) (A) (A) (A) (A) (A) (A)
                 (A) (A) (A) (A) (A) (A) (A) (A) (A) (A) (A) (A)
                 (A) (A) (A) (A) (A) (A) (A) (A) (A) (A) (A) (A)
                 (A) (A) (A) (A) (A) (A) (A) (A) (A) (A) (A) (A)
                 (A) (A) (A) (A) (A) (A) (A) (A) (A) (A) (A) (A)
                 (A) (A) (A) (A) (A) (A) (A) (A) (A) (A) (A) (A)
                 (A) (A) (A) (A) (A) (A) (A) (A) (A) (A) (A) (A)
                 (A) (A) (A) (A) (A) (A) (A) (A) (A) (A) (A) (A)
                 (A) (A) (A) (A) (A) (A) (A) (A) (A) (A) (A) (A)
                 (A) (A) (A) (A) (A) (A) (A) (A) (A) (A) (A) (A)
                 (A) (A) (A) (A) (A) (A) (A) (A) (A) (A) (A) (A)
                 (A) (A) (A) (A) (A) (A) (A) (A) (A) (A) (A) (A)
                 (A) (A) (A) (A) (A) (A) (A) (A) (A) (A) (A) (A)
                 (A) (A) (A) (A) (A) (A) (A) (A) (A) (A) (A) (A)
                 (A) (A) (A) (A) (A) (A) (A) (A) (A) (A) (A) (A)
                 (A) (A) (A) (A) (A) (A) (A) (A) (A) (A) (A) (A)
                 (A) (A) (A) (A) (A) (A) (A) (A) (A) (A) (A) (A)
                 (A) (A) (A) (A) (A) (A) (A) (A) (A) (A) (A) (A)
                 (A) (A) (A) (A) (A) (A) (A) (A) (A) (A) (A) (A)
                 (A) (A) (A) (A) (A) (A) (A) (A) (A) (A) (A) (A)
                 (A) (A) (A) (A) (A) (A) (A) (A) (A) (A) (A) (A)
                 (A) (A) (A) (A) (A) (A) (A) (A) (A) (A) (A) (A)
                 (A) (A) (A) (A) (A) (A) (A) (A) (A) (A) (A) (A)
                 (A) (A) (A) (A) (A) (A) (A) (A) (A) (A) (A) (A)
                 (A) (A) (A) (A) (A) (A) (A) (A) (A) (A) (A) (A)
                 (A) (A) (A) (A) (A) (A) (A) (A) (A) (A) (A) (A)
                 (A) (A) (A) (A) (A) (A) (A) (A) (A) (A) (A) (A)
                 (A) (A) (A) (A) (A) (A) (A) (A) (A) (A) (A) (A)
                 (A) (A) (A)
 The electronic state is 1-A.
 Alpha  occ. eigenvalues --  -89.18217 -24.79806 -24.79715 -24.79623 -19.24798
 Alpha  occ. eigenvalues --  -19.20961 -19.20911 -19.20860 -19.20778 -14.59700
 Alpha  occ. eigenvalues --  -10.50806 -10.30259 -10.27730 -10.23358 -10.22889
 Alpha  occ. eigenvalues --  -10.22830 -10.22418  -8.21107  -6.17536  -6.17366
 Alpha  occ. eigenvalues --   -6.17272  -1.37752  -1.29228  -1.28967  -1.25980
 Alpha  occ. eigenvalues --   -1.18504  -1.09910  -1.08673  -1.06462  -0.90954
 Alpha  occ. eigenvalues --   -0.83020  -0.81278  -0.77794  -0.73202  -0.71055
 Alpha  occ. eigenvalues --   -0.66173  -0.65272  -0.65073  -0.63354  -0.61891
 Alpha  occ. eigenvalues --   -0.58672  -0.57054  -0.55836  -0.54619  -0.53118
 Alpha  occ. eigenvalues --   -0.52456  -0.51899  -0.51722  -0.50758  -0.49721
 Alpha  occ. eigenvalues --   -0.48933  -0.48773  -0.47771  -0.46557  -0.46439
 Alpha  occ. eigenvalues --   -0.42686  -0.41567  -0.40226  -0.39400  -0.38887
 Alpha  occ. eigenvalues --   -0.37566  -0.36573  -0.35284  -0.34274  -0.33677
 Alpha  occ. eigenvalues --   -0.32710  -0.29539  -0.28987
 Alpha virt. eigenvalues --   -0.11558  -0.06645  -0.03859  -0.02990  -0.02198
 Alpha virt. eigenvalues --   -0.00744   0.00205   0.00794   0.01855   0.02416
 Alpha virt. eigenvalues --    0.02661   0.03605   0.03983   0.04446   0.05169
 Alpha virt. eigenvalues --    0.05575   0.06484   0.06699   0.07284   0.07746
 Alpha virt. eigenvalues --    0.08412   0.08719   0.09153   0.09447   0.10031
 Alpha virt. eigenvalues --    0.10182   0.10346   0.10649   0.11009   0.11236
 Alpha virt. eigenvalues --    0.11648   0.12016   0.12376   0.13254   0.14012
 Alpha virt. eigenvalues --    0.14193   0.14703   0.15382   0.15552   0.15988
 Alpha virt. eigenvalues --    0.16378   0.16863   0.17196   0.17736   0.17899
 Alpha virt. eigenvalues --    0.19102   0.19535   0.19711   0.19840   0.20417
 Alpha virt. eigenvalues --    0.21089   0.21186   0.21438   0.21785   0.22998
 Alpha virt. eigenvalues --    0.23387   0.23667   0.23934   0.24323   0.24562
 Alpha virt. eigenvalues --    0.24902   0.25561   0.25693   0.26010   0.26308
 Alpha virt. eigenvalues --    0.26828   0.27501   0.27595   0.27768   0.27998
 Alpha virt. eigenvalues --    0.28715   0.29057   0.29155   0.29384   0.30037
 Alpha virt. eigenvalues --    0.30271   0.30872   0.31213   0.32117   0.32170
 Alpha virt. eigenvalues --    0.32633   0.32972   0.33234   0.33672   0.34268
 Alpha virt. eigenvalues --    0.35073   0.35474   0.35835   0.36457   0.36558
 Alpha virt. eigenvalues --    0.37292   0.37817   0.38583   0.39501   0.40444
 Alpha virt. eigenvalues --    0.40886   0.41083   0.42487   0.43246   0.43910
 Alpha virt. eigenvalues --    0.44197   0.44772   0.45369   0.46504   0.46800
 Alpha virt. eigenvalues --    0.47376   0.48515   0.49635   0.50221   0.51032
 Alpha virt. eigenvalues --    0.51804   0.52468   0.53463   0.54156   0.54970
 Alpha virt. eigenvalues --    0.55693   0.55975   0.56517   0.57848   0.58873
 Alpha virt. eigenvalues --    0.59500   0.60533   0.60581   0.61550   0.62180
 Alpha virt. eigenvalues --    0.62719   0.63312   0.63518   0.64178   0.64491
 Alpha virt. eigenvalues --    0.65192   0.65872   0.66840   0.67811   0.68182
 Alpha virt. eigenvalues --    0.68887   0.70869   0.71402   0.72050   0.72340
 Alpha virt. eigenvalues --    0.73237   0.73757   0.74645   0.75082   0.75656
 Alpha virt. eigenvalues --    0.76359   0.76486   0.77197   0.77947   0.79709
 Alpha virt. eigenvalues --    0.80645   0.81774   0.82473   0.83367   0.84964
 Alpha virt. eigenvalues --    0.85047   0.85672   0.86845   0.88394   0.89682
 Alpha virt. eigenvalues --    0.90522   0.91300   0.92373   0.93705   0.94331
 Alpha virt. eigenvalues --    0.96336   0.96554   0.97788   0.97905   0.98604
 Alpha virt. eigenvalues --    0.99998   1.01688   1.02519   1.03308   1.03593
 Alpha virt. eigenvalues --    1.04453   1.05475   1.06666   1.07715   1.08457
 Alpha virt. eigenvalues --    1.09858   1.10111   1.10778   1.12349   1.13201
 Alpha virt. eigenvalues --    1.14025   1.15803   1.16301   1.16891   1.18116
 Alpha virt. eigenvalues --    1.19802   1.20077   1.21353   1.22125   1.22372
 Alpha virt. eigenvalues --    1.23386   1.24226   1.25358   1.26480   1.27178
 Alpha virt. eigenvalues --    1.27694   1.28631   1.29012   1.29355   1.30192
 Alpha virt. eigenvalues --    1.30672   1.32026   1.32827   1.32922   1.33147
 Alpha virt. eigenvalues --    1.33880   1.35941   1.36247   1.37806   1.38585
 Alpha virt. eigenvalues --    1.39182   1.40313   1.41139   1.42342   1.43089
 Alpha virt. eigenvalues --    1.43766   1.44633   1.44985   1.45359   1.46601
 Alpha virt. eigenvalues --    1.46909   1.47655   1.47969   1.49242   1.49469
 Alpha virt. eigenvalues --    1.50753   1.51219   1.52449   1.53362   1.55231
 Alpha virt. eigenvalues --    1.56502   1.57744   1.59436   1.61254   1.61901
 Alpha virt. eigenvalues --    1.63903   1.64477   1.65032   1.65738   1.66662
 Alpha virt. eigenvalues --    1.67274   1.67891   1.69269   1.69985   1.71168
 Alpha virt. eigenvalues --    1.71454   1.73508   1.74261   1.75617   1.76282
 Alpha virt. eigenvalues --    1.76959   1.79526   1.80598   1.81595   1.82993
 Alpha virt. eigenvalues --    1.84691   1.85216   1.87568   1.89876   1.90359
 Alpha virt. eigenvalues --    1.91625   1.92643   1.93401   1.95391   1.96069
 Alpha virt. eigenvalues --    1.97891   1.99240   2.00749   2.02197   2.03456
 Alpha virt. eigenvalues --    2.04676   2.06025   2.07275   2.07477   2.09145
 Alpha virt. eigenvalues --    2.10313   2.12572   2.14250   2.16428   2.18221
 Alpha virt. eigenvalues --    2.18944   2.20822   2.22934   2.26452   2.27747
 Alpha virt. eigenvalues --    2.30752   2.32136   2.35409   2.37276   2.38662
 Alpha virt. eigenvalues --    2.39756   2.43253   2.45092   2.46842   2.48842
 Alpha virt. eigenvalues --    2.50391   2.52036   2.61592   2.62654   2.69719
 Alpha virt. eigenvalues --    2.73333   2.76834   2.80917   2.84213   2.91858
 Alpha virt. eigenvalues --    2.92161   2.96064   2.98494   3.10232   3.15296
 Alpha virt. eigenvalues --    3.19430   3.22106   3.24836   3.26968   3.29183
 Alpha virt. eigenvalues --    3.31143   3.31703   3.32556   3.33115   3.33593
 Alpha virt. eigenvalues --    3.34342   3.35473   3.37207   3.38413   3.39135
 Alpha virt. eigenvalues --    3.40736   3.41615   3.43271   3.43814   3.45374
 Alpha virt. eigenvalues --    3.47916   3.49155   3.51516   3.53954   3.59667
 Alpha virt. eigenvalues --    3.60736   3.63516   3.66175   3.74013   3.80659
 Alpha virt. eigenvalues --    3.84115   4.08824   4.44776   4.44846   4.45982
 Alpha virt. eigenvalues --    4.48427   4.48732   4.49706   4.53872   4.54692
 Alpha virt. eigenvalues --    4.55992   4.59070   4.60653   4.62905   4.63320
 Alpha virt. eigenvalues --    4.69902   4.77767   4.78770
          Condensed to atoms (all electrons):
              1          2          3          4          5          6
     1  C   14.731178  -7.479656   4.726857  -5.971066   6.133505  -6.435202
     2  C   -7.479656  18.369447  -9.417047   6.723848  -7.547801   5.869007
     3  C    4.726857  -9.417047  18.056992  -8.616953   5.693293  -5.300347
     4  C   -5.971066   6.723848  -8.616953  18.040317 -10.363453   5.482775
     5  C    6.133505  -7.547801   5.693293 -10.363453  19.747913  -7.621682
     6  C   -6.435202   5.869007  -5.300347   5.482775  -7.621682  14.499678
     7  H   -1.969515   1.026417  -0.283325   0.182018  -0.322889   0.801249
     8  H    0.918044  -2.625756   1.547285  -0.656733   0.343316  -0.391759
     9  S    0.035569  -0.026053  -0.161402   0.076074  -0.054899   0.025766
    10  C    0.003723  -0.078971   0.163108  -0.039359   0.024293  -0.008899
    11  O   -0.194858   0.630291  -1.296663   0.460086  -0.192914   0.119569
    12  O   -0.010672   0.015202   0.058997  -0.007563   0.004683  -0.010319
    13  O   -0.028049  -0.032833   0.131108  -0.010567   0.008021  -0.003100
    14  F    0.005748   0.012170  -0.004442  -0.016044   0.001366  -0.001134
    15  F   -0.002020   0.001944  -0.018441   0.025954  -0.000934   0.001486
    16  F    0.000470   0.003701  -0.002344  -0.001729  -0.000418  -0.000001
    17  H    0.885814  -0.368997   0.195522  -0.327645   0.984519  -1.928598
    18  N    0.414190  -0.526696   0.432493  -0.953228   0.457198  -0.483532
    19  O    0.014474  -0.054862   0.048468  -0.144532   0.261313  -0.083327
    20  O   -0.012634  -0.020076   0.071379   0.031005   0.050081  -0.006948
    21  H   -0.515432   0.375727  -0.391612   1.862741  -2.998774   0.959330
              7          8          9         10         11         12
     1  C   -1.969515   0.918044   0.035569   0.003723  -0.194858  -0.010672
     2  C    1.026417  -2.625756  -0.026053  -0.078971   0.630291   0.015202
     3  C   -0.283325   1.547285  -0.161402   0.163108  -1.296663   0.058997
     4  C    0.182018  -0.656733   0.076074  -0.039359   0.460086  -0.007563
     5  C   -0.322889   0.343316  -0.054899   0.024293  -0.192914   0.004683
     6  C    0.801249  -0.391759   0.025766  -0.008899   0.119569  -0.010319
     7  H    2.657483  -0.193056  -0.000760  -0.000260  -0.002582  -0.000271
     8  H   -0.193056   3.163899   0.023891  -0.000548  -0.268464  -0.003044
     9  S   -0.000760   0.023891  14.521958   0.076793  -0.124425  -0.247146
    10  C   -0.000260  -0.000548   0.076793   4.608394  -0.116700   0.042426
    11  O   -0.002582  -0.268464  -0.124425  -0.116700   9.871381   0.061368
    12  O   -0.000271  -0.003044  -0.247146   0.042426   0.061368   8.896949
    13  O   -0.001511   0.001918  -0.277699   0.030033   0.052432   0.057827
    14  F    0.000124   0.000368  -0.022800   0.055258  -0.001559   0.006913
    15  F   -0.000002   0.000275  -0.036670   0.055452   0.007779   0.007774
    16  F    0.000025  -0.000161  -0.077421   0.049238   0.029135   0.014922
    17  H   -0.161404  -0.026986  -0.000108  -0.000138   0.004400  -0.000255
    18  N    0.001600   0.026286  -0.001722  -0.003720   0.001369   0.007363
    19  O    0.000598  -0.000505  -0.002344   0.000517  -0.005332   0.003125
    20  O   -0.000327  -0.001889   0.022813  -0.001515  -0.068514  -0.003044
    21  H   -0.030760   0.022230   0.004374   0.000330  -0.010290   0.001177
             13         14         15         16         17         18
     1  C   -0.028049   0.005748  -0.002020   0.000470   0.885814   0.414190
     2  C   -0.032833   0.012170   0.001944   0.003701  -0.368997  -0.526696
     3  C    0.131108  -0.004442  -0.018441  -0.002344   0.195522   0.432493
     4  C   -0.010567  -0.016044   0.025954  -0.001729  -0.327645  -0.953228
     5  C    0.008021   0.001366  -0.000934  -0.000418   0.984519   0.457198
     6  C   -0.003100  -0.001134   0.001486  -0.000001  -1.928598  -0.483532
     7  H   -0.001511   0.000124  -0.000002   0.000025  -0.161404   0.001600
     8  H    0.001918   0.000368   0.000275  -0.000161  -0.026986   0.026286
     9  S   -0.277699  -0.022800  -0.036670  -0.077421  -0.000108  -0.001722
    10  C    0.030033   0.055258   0.055452   0.049238  -0.000138  -0.003720
    11  O    0.052432  -0.001559   0.007779   0.029135   0.004400   0.001369
    12  O    0.057827   0.006913   0.007774   0.014922  -0.000255   0.007363
    13  O    8.929949   0.007339   0.009838   0.018010   0.000166  -0.000728
    14  F    0.007339   9.451878  -0.026239  -0.056600  -0.000028   0.003933
    15  F    0.009838  -0.026239   9.444146  -0.049447   0.000026  -0.002640
    16  F    0.018010  -0.056600  -0.049447   9.466591   0.000001   0.001798
    17  H    0.000166  -0.000028   0.000026   0.000001   2.622246   0.008284
    18  N   -0.000728   0.003933  -0.002640   0.001798   0.008284   8.088458
    19  O    0.000239  -0.000069  -0.000012  -0.000050  -0.001434  -0.429439
    20  O   -0.001121  -0.001796  -0.006507  -0.000857  -0.000100  -0.535787
    21  H    0.000103   0.000069  -0.000220  -0.000012  -0.182740  -0.199986
             19         20         21
     1  C    0.014474  -0.012634  -0.515432
     2  C   -0.054862  -0.020076   0.375727
     3  C    0.048468   0.071379  -0.391612
     4  C   -0.144532   0.031005   1.862741
     5  C    0.261313   0.050081  -2.998774
     6  C   -0.083327  -0.006948   0.959330
     7  H    0.000598  -0.000327  -0.030760
     8  H   -0.000505  -0.001889   0.022230
     9  S   -0.002344   0.022813   0.004374
    10  C    0.000517  -0.001515   0.000330
    11  O   -0.005332  -0.068514  -0.010290
    12  O    0.003125  -0.003044   0.001177
    13  O    0.000239  -0.001121   0.000103
    14  F   -0.000069  -0.001796   0.000069
    15  F   -0.000012  -0.006507  -0.000220
    16  F   -0.000050  -0.000857  -0.000012
    17  H   -0.001434  -0.000100  -0.182740
    18  N   -0.429439  -0.535787  -0.199986
    19  O    9.159953  -0.029861  -0.031687
    20  O   -0.029861   9.206351  -0.006866
    21  H   -0.031687  -0.006866   2.988296
 Mulliken atomic charges:
              1
     1  C    0.749532
     2  C    1.150993
     3  C    0.367076
     4  C    0.224056
     5  C    1.394263
     6  C    0.515988
     7  H   -0.702853
     8  H   -0.878611
     9  S    2.246209
    10  C    1.140545
    11  O   -0.955510
    12  O   -0.896410
    13  O   -0.891375
    14  F   -0.414455
    15  F   -0.411540
    16  F   -0.394849
    17  H   -0.702547
    18  N    0.694506
    19  O   -0.705234
    20  O   -0.683786
    21  H   -0.845996
 Sum of Mulliken atomic charges =   0.00000
 Mulliken charges with hydrogens summed into heavy atoms:
              1
     1  C    0.046678
     2  C    0.272382
     3  C    0.367076
     4  C    0.224056
     5  C    0.548267
     6  C   -0.186559
     9  S    2.246209
    10  C    1.140545
    11  O   -0.955510
    12  O   -0.896410
    13  O   -0.891375
    14  F   -0.414455
    15  F   -0.411540
    16  F   -0.394849
    18  N    0.694506
    19  O   -0.705234
    20  O   -0.683786
 Sum of Mulliken charges with hydrogens summed into heavy atoms =   0.00000
 Electronic spatial extent (au):  <R**2>=           4018.9422
 Charge=              0.0000 electrons
 Dipole moment (field-independent basis, Debye):
    X=             -4.0501    Y=             -4.3545    Z=             -1.9032  Tot=              6.2439
 Quadrupole moment (field-independent basis, Debye-Ang):
   XX=            -78.6762   YY=           -108.9622   ZZ=           -107.5933
   XY=             13.1685   XZ=              0.2233   YZ=              1.4917
 Traceless Quadrupole moment (field-independent basis, Debye-Ang):
   XX=             19.7343   YY=            -10.5516   ZZ=             -9.1827
   XY=             13.1685   XZ=              0.2233   YZ=              1.4917
 Octapole moment (field-independent basis, Debye-Ang**2):
  XXX=            -15.5165  YYY=            -27.9087  ZZZ=             -9.5661  XYY=              5.9438
  XXY=            -13.0691  XXZ=             -3.2791  XZZ=             26.7051  YZZ=              4.4377
  YYZ=            -12.0678  XYZ=              3.7264
 Hexadecapole moment (field-independent basis, Debye-Ang**3):
 XXXX=          -2790.4246 YYYY=          -1317.6818 ZZZZ=           -406.9229 XXXY=             90.0948
 XXXZ=            -45.2958 YYYX=            113.7062 YYYZ=             10.2216 ZZZX=            -23.0024
 ZZZY=             -5.3527 XXYY=           -709.1862 XXZZ=           -628.3657 YYZZ=           -285.1063
 XXYZ=             -8.9640 YYXZ=             12.3895 ZZXY=             -5.5635
 N-N= 1.498383359303D+03 E-N=-6.291972575150D+03  KE= 1.390734215780D+03
 No NMR shielding tensors so no spin-rotation constants.
 Leave Link  601 at Tue Aug 20 17:43:06 2019, MaxMem=  524288000 cpu:       2.5
 (Enter /home/ubuntu/g09/l701.exe)
 Compute integral first derivatives.
 ... and contract with generalized density number  0.
 D1PCM: C-PCM CHGder 1st derivatives, ID1Alg=3 FixD1E=F DoIter=F DoCFld=F I1PDM=0.
 GePol: Maximum number of non-zero 1st derivatives   =     212
 Leave Link  701 at Tue Aug 20 17:43:11 2019, MaxMem=  524288000 cpu:      34.8
 (Enter /home/ubuntu/g09/l702.exe)
 L702 exits ... SP integral derivatives will be done elsewhere.
 Leave Link  702 at Tue Aug 20 17:43:11 2019, MaxMem=  524288000 cpu:       0.1
 (Enter /home/ubuntu/g09/l703.exe)
 Compute integral first derivatives, UseDBF=F ICtDFT=           0.
 Integral derivatives from FoFDir, PRISM(SPDF).
 Calling FoFJK, ICntrl=      2127 FMM=F ISym2X=0 I1Cent= 0 IOpClX= 0 NMat=1 NMatS=1 NMatT=0.
 FoFCou: FMM=F IPFlag=           0 FMFlag=      100000 FMFlg1=         800
         NFxFlg=           0 DoJE=F BraDBF=F KetDBF=F FulRan=T
         Omega=  0.000000  0.000000  1.000000  0.000000  0.000000 ICntrl=    2127 IOpCl=  0
         NMat0=    1 NMatS0=    1 NMatT0=    0 NMatD0=    1 NMtDS0=    0 NMtDT0=    0
         I1Cent=           0 NGrid=           0.
 Symmetry not used in FoFCou.
 Leave Link  703 at Tue Aug 20 17:44:54 2019, MaxMem=  524288000 cpu:     719.6
 (Enter /home/ubuntu/g09/l716.exe)
 Dipole        =-1.59341416D+00-1.71319440D+00-7.48779735D-01
 ***** Axes restored to original set *****
 -------------------------------------------------------------------
 Center     Atomic                   Forces (Hartrees/Bohr)
 Number     Number              X              Y              Z
 -------------------------------------------------------------------
      1        6          -0.000447381   -0.000449469   -0.000009880
      2        6           0.001505370    0.001095488   -0.000037076
      3        6          -0.002790495   -0.002094435   -0.000453618
      4        6           0.000549479    0.001796313    0.000324419
      5        6          -0.000402341    0.000799546    0.000935350
      6        6          -0.000483260    0.000273637    0.000266726
      7        1           0.000137967    0.000348068   -0.000036346
      8        1          -0.000537805   -0.000127537   -0.000197833
      9       16          -0.001533955    0.001025019   -0.006016724
     10        6           0.003485979   -0.001228007   -0.000263527
     11        8           0.003840631    0.000393652    0.001785985
     12        8          -0.000362781    0.000235408    0.002563602
     13        8           0.000571477   -0.000951327    0.001608838
     14        9          -0.000900833    0.000308761    0.000994564
     15        9          -0.000749766    0.000614752    0.000094674
     16        9          -0.000924976    0.000245652   -0.000508964
     17        1           0.000339193    0.000158630   -0.000105722
     18        7          -0.003829004   -0.009704371   -0.001174106
     19        8           0.001358195    0.004040567    0.001024287
     20        8           0.001835795    0.003810797   -0.000213308
     21        1          -0.000661490   -0.000591144   -0.000581340
 -------------------------------------------------------------------
 Cartesian Forces:  Max     0.009704371 RMS     0.002020145
 Leave Link  716 at Tue Aug 20 17:44:54 2019, MaxMem=  524288000 cpu:       0.1
 (Enter /home/ubuntu/g09/l103.exe)

 GradGradGradGradGradGradGradGradGradGradGradGradGradGradGradGradGradGrad
 Berny optimization.
 Internal  Forces:  Max     0.005384107 RMS     0.001038106
 Search for a local minimum.
 Step number   1 out of a maximum of  107
 All quantities printed in internal units (Hartrees-Bohrs-Radians)
 RMS Force = .10381D-02 SwitMx=.10000D-02 MixMth= 1
 Mixed Optimization -- RFO/linear search
 Second derivative matrix not updated -- first step.
 ITU=  0
     Eigenvalues ---    0.00230   0.00695   0.00702   0.01441   0.01663
     Eigenvalues ---    0.01778   0.02035   0.02078   0.02125   0.02132
     Eigenvalues ---    0.02139   0.02142   0.02149   0.02154   0.08286
     Eigenvalues ---    0.08742   0.09369   0.11087   0.15049   0.16000
     Eigenvalues ---    0.16000   0.16000   0.16000   0.19127   0.19202
     Eigenvalues ---    0.21999   0.22492   0.24481   0.24994   0.24997
     Eigenvalues ---    0.25000   0.25000   0.25000   0.25000   0.25000
     Eigenvalues ---    0.25000   0.25000   0.34852   0.34899   0.34985
     Eigenvalues ---    0.35099   0.35109   0.37241   0.41707   0.42166
     Eigenvalues ---    0.45379   0.46165   0.46255   0.46480   0.46721
     Eigenvalues ---    0.58124   0.59153   0.60633   0.86687   0.86688
     Eigenvalues ---    0.92145   0.92892
 RFO step:  Lambda=-5.08728025D-04 EMin= 2.30000000D-03
 Linear search not attempted -- first point.
 Iteration  1 RMS(Cart)=  0.02345269 RMS(Int)=  0.00078686
 Iteration  2 RMS(Cart)=  0.00074805 RMS(Int)=  0.00029628
 Iteration  3 RMS(Cart)=  0.00000048 RMS(Int)=  0.00029628
 Variable       Old X    -DE/DX   Delta X   Delta X   Delta X     New X
                                 (Linear)    (Quad)   (Total)
    R1        2.63857   0.00067   0.00000   0.00136   0.00136   2.63993
    R2        2.64195   0.00032   0.00000   0.00065   0.00065   2.64260
    R3        2.05916  -0.00037   0.00000  -0.00107  -0.00107   2.05809
    R4        2.63751  -0.00100   0.00000  -0.00219  -0.00220   2.63532
    R5        2.05700  -0.00019   0.00000  -0.00055  -0.00055   2.05645
    R6        2.65372   0.00102   0.00000   0.00232   0.00232   2.65604
    R7        2.63327   0.00336   0.00000   0.00719   0.00719   2.64046
    R8        2.63833   0.00081   0.00000   0.00182   0.00183   2.64015
    R9        2.78798  -0.00197   0.00000  -0.00560  -0.00560   2.78238
   R10        2.63478  -0.00040   0.00000  -0.00082  -0.00081   2.63397
   R11        2.05515  -0.00022   0.00000  -0.00063  -0.00063   2.05452
   R12        2.05840  -0.00037   0.00000  -0.00106  -0.00106   2.05734
   R13        3.60715   0.00053   0.00000   0.00275   0.00275   3.60990
   R14        3.19184  -0.00146   0.00000  -0.00391  -0.00391   3.18793
   R15        2.78198   0.00234   0.00000   0.00270   0.00270   2.78468
   R16        2.78198   0.00106   0.00000   0.00122   0.00122   2.78320
   R17        2.51617  -0.00118   0.00000  -0.00199  -0.00199   2.51418
   R18        2.50443   0.00075   0.00000   0.00124   0.00124   2.50566
   R19        2.52456  -0.00107   0.00000  -0.00184  -0.00184   2.52272
   R20        2.31960   0.00249   0.00000   0.00270   0.00270   2.32230
   R21        2.31628   0.00252   0.00000   0.00271   0.00271   2.31899
    A1        2.09882   0.00039   0.00000   0.00152   0.00152   2.10034
    A2        2.08563  -0.00020   0.00000  -0.00080  -0.00081   2.08482
    A3        2.09874  -0.00019   0.00000  -0.00070  -0.00071   2.09803
    A4        2.09441  -0.00012   0.00000  -0.00076  -0.00077   2.09364
    A5        2.11858  -0.00044   0.00000  -0.00272  -0.00272   2.11585
    A6        2.07019   0.00056   0.00000   0.00349   0.00349   2.07368
    A7        2.08785  -0.00024   0.00000  -0.00090  -0.00090   2.08696
    A8        2.07102   0.00057   0.00000   0.00225   0.00225   2.07327
    A9        2.12416  -0.00033   0.00000  -0.00134  -0.00134   2.12283
   A10        2.09910   0.00048   0.00000   0.00215   0.00216   2.10125
   A11        2.13558  -0.00075   0.00000  -0.00313  -0.00313   2.13244
   A12        2.04835   0.00027   0.00000   0.00093   0.00093   2.04928
   A13        2.09220  -0.00056   0.00000  -0.00228  -0.00230   2.08990
   A14        2.06937   0.00114   0.00000   0.00648   0.00644   2.07581
   A15        2.12160  -0.00058   0.00000  -0.00425  -0.00429   2.11732
   A16        2.09383   0.00006   0.00000   0.00027   0.00028   2.09411
   A17        2.10093   0.00007   0.00000   0.00052   0.00050   2.10143
   A18        2.08843  -0.00013   0.00000  -0.00078  -0.00079   2.08764
   A19        1.64055   0.00011   0.00000   0.00407   0.00406   1.64461
   A20        1.91157   0.00033   0.00000  -0.00032  -0.00034   1.91124
   A21        1.88915   0.00005   0.00000  -0.00119  -0.00122   1.88793
   A22        1.91362   0.00019   0.00000   0.00319   0.00318   1.91680
   A23        1.91474   0.00088   0.00000   0.00867   0.00867   1.92341
   A24        2.13078  -0.00121   0.00000  -0.01074  -0.01076   2.12002
   A25        1.91212  -0.00090   0.00000  -0.00391  -0.00392   1.90821
   A26        1.92127  -0.00100   0.00000  -0.00488  -0.00489   1.91638
   A27        1.85838   0.00029   0.00000   0.00232   0.00232   1.86070
   A28        1.92997   0.00061   0.00000   0.00025   0.00023   1.93019
   A29        1.91829   0.00058   0.00000   0.00414   0.00414   1.92242
   A30        1.92252   0.00039   0.00000   0.00212   0.00212   1.92465
   A31        2.02866   0.00171   0.00000   0.00685   0.00685   2.03550
   A32        2.03889   0.00290   0.00000   0.01252   0.01084   2.04973
   A33        2.05813   0.00251   0.00000   0.01098   0.00930   2.06743
   A34        2.18574  -0.00538   0.00000  -0.02054  -0.02223   2.16352
    D1       -0.01149  -0.00001   0.00000  -0.00031  -0.00031  -0.01180
    D2        3.12776   0.00011   0.00000   0.00502   0.00501   3.13278
    D3        3.13292  -0.00008   0.00000  -0.00361  -0.00360   3.12932
    D4       -0.01101   0.00004   0.00000   0.00172   0.00172  -0.00930
    D5       -0.00128   0.00004   0.00000   0.00178   0.00178   0.00051
    D6       -3.14119  -0.00012   0.00000  -0.00544  -0.00543   3.13657
    D7        3.13748   0.00011   0.00000   0.00510   0.00510  -3.14060
    D8       -0.00244  -0.00005   0.00000  -0.00211  -0.00211  -0.00454
    D9        0.01020  -0.00005   0.00000  -0.00229  -0.00229   0.00792
   D10       -3.11343  -0.00007   0.00000  -0.00319  -0.00318  -3.11661
   D11       -3.12911  -0.00017   0.00000  -0.00746  -0.00747  -3.13658
   D12        0.03043  -0.00018   0.00000  -0.00836  -0.00837   0.02207
   D13        0.00376   0.00008   0.00000   0.00341   0.00342   0.00719
   D14       -3.11806   0.00012   0.00000   0.00637   0.00638  -3.11168
   D15        3.12684   0.00010   0.00000   0.00438   0.00438   3.13122
   D16        0.00501   0.00015   0.00000   0.00733   0.00734   0.01235
   D17       -1.42292  -0.00027   0.00000  -0.01498  -0.01499  -1.43791
   D18        1.73702  -0.00029   0.00000  -0.01591  -0.01591   1.72111
   D19       -0.01649  -0.00005   0.00000  -0.00193  -0.00194  -0.01843
   D20        3.12885   0.00029   0.00000   0.01317   0.01321  -3.14112
   D21        3.10630  -0.00010   0.00000  -0.00479  -0.00480   3.10150
   D22       -0.03154   0.00023   0.00000   0.01031   0.01035  -0.02119
   D23       -2.60742   0.00062   0.00000   0.08378   0.08372  -2.52370
   D24        0.56384  -0.00016   0.00000  -0.01908  -0.01902   0.54482
   D25        0.55340   0.00066   0.00000   0.08663   0.08658   0.63997
   D26       -2.55853  -0.00011   0.00000  -0.01622  -0.01616  -2.57470
   D27        0.01522  -0.00002   0.00000  -0.00068  -0.00068   0.01454
   D28       -3.12803   0.00014   0.00000   0.00649   0.00647  -3.12156
   D29       -3.13024  -0.00036   0.00000  -0.01622  -0.01617   3.13677
   D30        0.00969  -0.00020   0.00000  -0.00905  -0.00902   0.00067
   D31       -0.98502   0.00009   0.00000   0.01140   0.01139  -0.97362
   D32        1.14087  -0.00039   0.00000   0.00602   0.00603   1.14690
   D33       -3.05867  -0.00029   0.00000   0.00725   0.00725  -3.05142
   D34       -2.94810  -0.00024   0.00000   0.00633   0.00633  -2.94177
   D35       -0.82221  -0.00071   0.00000   0.00096   0.00097  -0.82124
   D36        1.26143  -0.00061   0.00000   0.00219   0.00219   1.26362
   D37        0.97442   0.00108   0.00000   0.02202   0.02201   0.99643
   D38        3.10031   0.00061   0.00000   0.01665   0.01665   3.11696
   D39       -1.09923   0.00071   0.00000   0.01788   0.01787  -1.08136
   D40       -2.84550  -0.00018   0.00000  -0.00849  -0.00848  -2.85397
   D41       -0.88418   0.00026   0.00000  -0.00643  -0.00643  -0.89060
   D42        1.50044  -0.00046   0.00000  -0.01071  -0.01072   1.48971
         Item               Value     Threshold  Converged?
 Maximum Force            0.005384     0.000450     NO 
 RMS     Force            0.001038     0.000300     NO 
 Maximum Displacement     0.126995     0.001800     NO 
 RMS     Displacement     0.023611     0.001200     NO 
 Predicted change in Energy=-2.593789D-04
 GradGradGradGradGradGradGradGradGradGradGradGradGradGradGradGradGradGrad

 Leave Link  103 at Tue Aug 20 17:44:54 2019, MaxMem=  524288000 cpu:       0.2
 (Enter /home/ubuntu/g09/l202.exe)
                          Input orientation:                          
 ---------------------------------------------------------------------
 Center     Atomic      Atomic             Coordinates (Angstroms)
 Number     Number       Type             X           Y           Z
 ---------------------------------------------------------------------
      1          6           0       -3.081632   -2.067941   -0.299725
      2          6           0       -1.720344   -1.856557   -0.531654
      3          6           0       -1.191561   -0.568810   -0.448802
      4          6           0       -2.034388    0.507473   -0.122090
      5          6           0       -3.392025    0.291688    0.127258
      6          6           0       -3.916908   -0.995849    0.029621
      7          1           0       -3.488056   -3.075332   -0.377908
      8          1           0       -1.055711   -2.681414   -0.780871
      9         16           0        1.236432   -0.696737    0.550967
     10          6           0        2.692959    0.237390   -0.258412
     11          8           0        0.167173   -0.380876   -0.715057
     12          8           0        0.803159    0.022092    1.762173
     13          8           0        1.573187   -2.130081    0.586702
     14          9           0        2.919354   -0.264392   -1.469628
     15          9           0        2.410249    1.530590   -0.334751
     16          9           0        3.755064    0.041609    0.526279
     17          1           0       -4.978806   -1.158703    0.205996
     18          7           0       -1.544919    1.894494   -0.055201
     19          8           0       -2.034957    2.627300    0.800997
     20          8           0       -0.625482    2.226487   -0.797042
     21          1           0       -4.022418    1.141389    0.377509
 ---------------------------------------------------------------------
                    Distance matrix (angstroms):
                    1          2          3          4          5
     1  C    0.000000
     2  C    1.396990   0.000000
     3  C    2.417020   1.394549   0.000000
     4  C    2.785863   2.419711   1.405518   0.000000
     5  C    2.417955   2.800649   2.431942   1.397110   0.000000
     6  C    1.398405   2.425024   2.799780   2.413892   1.393839
     7  H    1.089095   2.152640   3.400231   3.874930   3.406058
     8  H    2.170762   1.088226   2.142854   3.400118   3.888752
     9  S    4.609724   3.355559   2.628888   3.549843   4.751750
    10  C    6.217891   4.892496   3.971864   4.737018   6.097436
    11  O    3.684213   2.402913   1.397272   2.446966   3.718834
    12  O    4.869421   3.893460   3.035866   3.440598   4.510565
    13  O    4.738876   3.488965   3.339711   4.524784   5.543408
    14  F    6.374425   4.994154   4.246690   5.191453   6.533970
    15  F    6.565928   5.345402   4.170554   4.565828   5.951026
[...]
 897,0.00042851,-0.00041759,0.00041251,-0.00173702,0.00025014,0.0003664
 6,0.00293816,0.00145416,-0.00687066,-0.00027807,-0.00095147,-0.0005059
 5,-0.00077110,-0.00021978,0.00056521,-0.00039576,0.00054803,0.00012763
 ,-0.00020138,-0.00007824,0.00002735,0.00005412,0.00017836,-0.00021234,
 0.05456576,0.02348360,-0.05808160,0.02859941,0.01514768,0.47324707,0.0
 0862859,-0.00764932,-0.00204469,-0.04792694,-0.01778176,0.00896978,-0.
 18552001,-0.02179902,0.03807321,-0.04094125,-0.00058284,0.01055173,-0.
 00236257,0.00645850,0.00215123,-0.00299984,0.00347333,0.00140075,-0.00
 219938,-0.00027324,0.00014792,0.00176278,0.00181982,-0.00120059,-0.071
 78678,-0.00248118,-0.01030639,0.00895272,0.01349134,-0.02978629,0.3564
 3392,0.00082366,-0.00494612,-0.00402259,-0.04009231,-0.00130654,0.0073
 2295,-0.02770564,-0.06531718,0.00757532,0.02159780,0.01052921,-0.00338
 831,0.00003719,-0.00481825,-0.00110067,-0.00063662,0.00116531,0.000580
 99,-0.00139350,-0.00009538,0.00045899,0.00090316,0.00240484,0.00123888
 ,0.00501656,-0.04101054,0.02149835,-0.00080804,0.00264127,-0.00427715,
 0.03147385,0.10228821,0.00140221,-0.00329914,0.00638310,-0.00542688,-0
 .00138453,0.00766541,0.05128437,0.01170112,-0.06944938,0.00616834,-0.0
 0067211,0.00164551,0.00121900,-0.00054291,0.00527854,-0.00009961,0.000
 26901,-0.00099765,-0.00053953,-0.00003323,-0.00020259,-0.00077994,0.00
 129555,-0.00394424,-0.02092055,0.01837986,-0.11126469,0.00737256,0.001
 87070,0.00361223,-0.01125592,-0.02962396,0.17944124,0.00007537,-0.0001
 0281,-0.00004580,-0.00038062,-0.00012980,0.00026303,0.00607049,0.00127
 849,0.00093303,0.00015965,0.00019451,-0.00005326,0.00022221,0.00021821
 ,-0.00034523,-0.00013786,-0.00008731,0.00006343,-0.00005791,-0.0000291
 4,-0.00002471,-0.00003553,0.00000177,-0.00001674,-0.10194921,0.0663599
 2,0.09788832,0.01807945,0.01676259,0.00170904,0.00565920,-0.00575827,-
 0.01872672,0.07045378,0.00030931,0.00002952,-0.00008620,-0.00044442,-0
 .00019205,0.00014075,0.00350176,0.00008721,0.00014426,-0.00036121,-0.0
 0046429,-0.00013284,-0.00060033,-0.00023097,0.00022255,-0.00019310,0.0
 0040261,0.00013939,-0.00004966,-0.00002071,0.00000635,0.00013664,0.000
 20891,0.00013603,0.06853007,-0.23066048,-0.20757517,-0.00533531,-0.000
 98903,0.00213939,0.00110831,0.00585284,-0.00093406,-0.07915448,0.23588
 946,0.00105459,-0.00052583,0.00005240,-0.00295002,-0.00037713,0.000502
 23,0.01063528,0.00087241,-0.00132515,-0.00003659,-0.00034844,-0.000189
 78,-0.00144348,-0.00059927,0.00019186,-0.00057846,0.00113775,0.0003650
 5,-0.00023008,-0.00009447,-0.00000245,0.00009920,0.00026914,-0.0000928
 5,0.09662263,-0.21058701,-0.33285638,-0.01755017,-0.01987775,0.0018890
 7,-0.00388801,-0.01418136,-0.01814274,-0.09430779,0.23302856,0.3480631
 6,0.00009310,0.00018835,-0.00016245,-0.00044229,-0.00073428,-0.0000740
 0,0.00839630,0.00145761,0.00079989,-0.00068557,-0.00020590,0.00008499,
 -0.00026728,0.00015336,0.00013994,-0.00023797,0.00007787,0.00015691,-0
 .00010028,-0.00006264,-0.00001335,-0.00021096,0.00058314,0.00011380,-0
 .07975877,0.06266147,-0.00132727,0.01464677,-0.00517251,-0.00399273,-0
 .00016575,0.01664600,-0.01082137,0.01407850,0.01098726,-0.00218025,0.0
 5134271,0.00009435,0.00029461,-0.00007809,0.00107465,-0.00070448,-0.00
 088214,-0.00547503,-0.00276670,0.00078820,0.00050332,0.00066071,0.0004
 5233,0.00031211,0.00006059,-0.00015401,0.00032704,-0.00014013,-0.00001
 949,0.00012704,0.00007318,-0.00004633,0.00014054,0.00046315,0.00060607
 ,0.05949384,-0.51609439,0.06967219,0.02822350,-0.00373643,-0.01161953,
 0.00641598,-0.00111831,0.00018841,0.00692058,-0.01504343,0.00492876,-0
 .08061585,0.54250145,0.00004375,0.00008486,0.00002121,-0.00058589,-0.0
 0064101,-0.00003508,0.00536706,0.00337190,-0.00092522,-0.00103217,-0.0
 0066653,-0.00039201,-0.00044574,0.00015772,0.00037300,-0.00028024,0.00
 016928,0.00010847,-0.00010742,-0.00006360,0.00000189,-0.00018128,0.000
 42348,-0.00014418,-0.00309453,0.07273209,-0.07388138,-0.01121163,0.005
 62421,0.00813955,-0.01179278,0.01522271,-0.00110554,0.00404576,-0.0276
 7805,0.00815979,0.01149225,-0.07374652,0.06154547,0.00016172,-0.000058
 13,-0.00000157,-0.00043767,-0.00011832,0.00009006,0.00242388,0.0004572
 3,-0.00011768,0.00000676,-0.00005992,0.00006382,-0.00020818,-0.0000755
 1,0.00000778,-0.00015091,0.00016770,0.00006286,-0.00004771,-0.00002359
 ,0.00000085,0.00001554,0.00006020,0.00001845,0.00634154,0.01420760,0.0
 1708716,-0.07632130,0.02219331,0.04502998,-0.00539473,-0.00055059,-0.0
 0138330,-0.00697539,-0.00021337,0.00623988,-0.00182502,-0.00479636,0.0
 0009677,0.06992005,-0.00000592,0.00000792,-0.00000765,0.00004673,-0.00
 001254,-0.00003219,-0.00026589,0.00007746,0.00028155,-0.00006711,0.000
 03768,0.00000930,0.00001668,0.00003725,-0.00000932,0.00001834,-0.00001
 358,-0.00000217,0.00000775,0.00000279,-0.00000181,0.00000290,-0.000007
 44,0.00001275,-0.00247243,0.00020188,-0.00184748,0.01848111,-0.1094651
 4,-0.07990930,0.00066062,0.00021027,0.00032259,0.00050242,0.00040725,-
 0.00012314,0.00072571,0.00299424,-0.00035913,-0.02779132,0.15848418,-0
 .00020195,0.00011517,-0.00011413,0.00066012,0.00002423,-0.00014100,-0.
 00207637,-0.00007634,0.00177937,-0.00020438,0.00016412,-0.00001677,0.0
 0027676,0.00017753,-0.00010030,0.00017806,-0.00022806,-0.00006126,0.00
 007157,0.00003136,-0.00000439,-0.00001270,-0.00008707,0.00003168,-0.00
 539602,-0.02151798,-0.02021952,0.03857234,-0.08541194,-0.22293881,0.00
 683560,0.00102017,0.00278652,0.00899447,0.00057717,-0.00790138,0.00199
 378,0.00660197,0.00048683,-0.03101501,0.14473553,0.30079563,0.00009072
 ,-0.00003948,-0.00005747,-0.00030314,-0.00011549,0.00003807,0.00169608
 ,0.00034171,-0.00009258,-0.00005956,-0.00008495,-0.00000283,-0.0001124
 7,-0.00001363,0.00004509,-0.00009700,0.00008462,0.00003524,-0.00003553
 ,-0.00001910,0.00001023,0.00002215,0.00005405,0.00002990,0.00918124,-0
 .01277220,0.00199295,-0.06793920,0.01293762,-0.00121723,-0.00322706,-0
 .00093178,-0.00056642,-0.00195017,0.00088397,0.00136462,-0.00362391,-0
 .00536093,0.00292947,0.00878973,0.01946950,0.00632771,0.07424668,0.000
 16945,-0.00000856,0.00006229,-0.00027680,-0.00012706,0.00016533,0.0021
 9287,0.00143134,-0.00127308,-0.00021091,-0.00024056,-0.00011420,-0.000
 35406,-0.00005369,0.00018776,-0.00017321,0.00023786,0.00007614,-0.0000
 5298,-0.00002843,-0.00000127,0.00003133,0.00013422,-0.00001712,0.01722
 018,-0.02464819,0.00219867,0.01958317,-0.26726226,0.04964413,-0.007642
 67,0.00019466,-0.00169596,-0.00503699,0.00463227,0.00428137,-0.0070546
 2,-0.00849820,0.00529252,0.01144397,-0.06060698,-0.02614481,-0.0605466
 0,0.37713741,-0.00006382,0.00001138,-0.00005486,0.00014254,0.00006270,
 -0.00008565,-0.00074144,-0.00078552,0.00092408,0.00011331,0.00016530,0
 .00007732,0.00014812,0.00001645,-0.00010677,0.00007989,-0.00009800,-0.
 00003127,0.00002732,0.00001530,-0.00000264,-0.00002026,-0.00006524,0.0
 0002522,-0.00694983,0.01472326,0.00202121,-0.00407750,0.05242310,-0.07
 795607,0.00399178,-0.00014737,0.00064767,0.00125727,-0.00115921,-0.000
 59626,0.00359623,0.00501517,-0.00293065,0.00648135,-0.04361512,0.00422
 273,0.01757694,-0.06023198,0.08313900,0.00034991,-0.00030913,0.0002021
 8,-0.00148715,0.00012382,0.00023317,0.00386776,0.00084640,-0.00339067,
 -0.00019672,-0.00063901,-0.00035006,-0.00064588,-0.00020089,0.00031383
 ,-0.00032087,0.00046082,0.00012174,-0.00015852,-0.00006374,0.00002912,
 0.00005544,0.00015653,-0.00012724,-0.01736611,0.00854372,-0.03098919,-
 0.21802022,0.00924468,-0.09486472,-0.01516912,-0.00310790,0.00409370,-
 0.00329284,0.00104230,0.00796419,-0.00089132,-0.00759525,0.00527337,0.
 00375691,-0.00945329,-0.02509970,-0.01611286,0.03020693,-0.02156111,0.
 26596029,0.00009429,-0.00006246,0.00004002,-0.00027652,0.00007743,0.00
 002616,0.00056474,0.00009950,-0.00066552,0.00000227,-0.00010178,-0.000
 07351,-0.00015434,-0.00005454,0.00006530,-0.00006021,0.00011056,0.0000
 2957,-0.00002818,-0.00000866,0.00000121,0.00002271,0.00002116,-0.00000
 922,-0.00439152,0.00520841,-0.00457908,0.00582642,-0.06595807,0.004998
 78,-0.00289017,-0.00047954,0.00076629,-0.00126992,0.00013701,0.0021438
 3,0.00016996,0.00071104,-0.00017043,-0.01471504,0.00766981,-0.02010057
 ,0.04606608,-0.02197765,0.03360016,-0.02904925,0.07468419,0.00003813,-
 0.00003132,-0.00001195,-0.00016670,-0.00005613,0.00002726,0.00065442,0
 .00012676,0.00007355,-0.00005559,-0.00004670,0.00003197,-0.00004523,0.
 00000796,-0.00000360,-0.00002375,0.00002995,0.00000956,-0.00001603,-0.
 00000548,0.00000142,0.00000697,0.00002218,-0.00000003,-0.00022585,0.00
 198455,0.00085342,-0.08514224,0.00712024,-0.12156060,-0.00060533,-0.00
 017450,-0.00009498,-0.00160640,0.00060415,0.00259110,0.00018398,-0.001
 72207,0.00060574,-0.04264583,-0.01946780,-0.05867725,-0.02850284,0.027
 62958,-0.00936096,0.15828807,-0.01604023,0.18552038,-0.01212234,-0.005
 64474,0.00186111,0.00008944,0.00269630,0.00195965,0.00068032,0.0004866
 3,-0.00008368,0.00154708,-0.00174549,0.00062438,-0.00575949,0.00087441
 ,0.00194962,-0.33015108,-0.04836973,0.04768243,0.00069574,-0.00004191,
 -0.00089075,-0.00058945,-0.00032562,0.00002073,0.00021689,-0.00006813,
 0.00029073,0.00008456,0.00004220,-0.00007434,-0.00041127,-0.00003143,-
 0.00026708,-0.00003482,-0.00001053,-0.00008025,-0.00006296,0.00003536,
 -0.00005454,-0.00002102,0.00000357,0.00003021,-0.00001767,-0.00002393,
 0.00001413,-0.00006260,-0.00000931,-0.00000653,0.34563651,0.02312586,0
 .00752003,-0.00389548,0.00272548,-0.00280850,-0.00257522,0.00015746,-0
 .00134597,-0.00031583,-0.00127741,-0.00393577,-0.00216256,-0.02829982,
 -0.00219703,0.00421744,-0.04807484,-0.06384467,0.00431488,-0.00009882,
 0.00075985,0.00098023,0.00108463,0.00033634,-0.00011461,0.00001515,-0.
 00005013,-0.00008059,-0.00000630,-0.00002614,0.00002973,0.00009519,0.0
 0023703,0.00023169,-0.00002366,0.00003609,0.00004276,0.00002009,0.0000
 2261,0.00001948,0.00000278,-0.00000062,-0.00000793,-0.00000071,0.00001
 501,-0.00000575,0.00002117,0.00000570,0.00000072,0.05170825,0.06456299
 ,0.00831890,0.00170830,0.00296449,0.00186397,-0.00278718,0.00584943,0.
 00017025,-0.00031612,-0.00041166,0.00030553,-0.00158182,0.00616339,-0.
 00380449,-0.00119910,0.00447439,0.04757423,0.00444097,-0.04674357,-0.0
 0095326,0.00099245,-0.00359205,0.00041561,0.00015302,-0.00010135,-0.00
 016565,-0.00014444,0.00005979,-0.00000472,0.00003112,-0.00008159,-0.00
 013764,0.00026336,-0.00084030,0.00000909,-0.00000511,-0.00005414,0.000
 00237,0.00004763,-0.00002754,-0.00000248,0.00000230,0.00002094,0.00000
 032,-0.00001916,0.00001374,-0.00005679,-0.00001020,-0.00000122,-0.0523
 2105,-0.00215114,0.03574591,-0.00399207,0.00178953,0.00043331,0.000694
 05,0.00718932,0.00390082,0.02429729,0.01329374,-0.00578361,-0.10997467
 ,-0.00229609,0.00109987,-0.01071086,-0.03929615,-0.00313858,-0.0068408
 6,0.00045204,0.00437645,-0.00008732,0.00019092,-0.00043519,0.00062203,
 0.00118792,0.00066353,-0.00284246,0.00397294,-0.00011816,-0.00126300,0
 .00112707,-0.00020582,-0.00359281,-0.00466986,-0.00004071,0.00096420,-
 0.00149670,-0.00002491,0.00030624,-0.00097822,0.00007732,0.00018864,-0
 .00022703,-0.00031192,0.00046504,-0.00070151,0.00016384,0.00029025,-0.
 00013785,0.00021806,0.00006533,-0.00148279,-0.00019675,0.56789711,0.00
 003440,0.00014547,0.00069498,0.00926247,0.00512924,-0.00129812,0.00649
 364,-0.03748907,-0.01374968,-0.00553107,-0.12536852,-0.00775097,-0.029
 01104,-0.01719761,0.00861650,0.00048129,0.00969561,0.00038125,0.000069
 03,0.00015163,0.00003986,-0.00080497,0.00022538,-0.00009858,0.00722954
 ,-0.00273864,0.00703596,0.00200942,0.00175662,-0.00183171,-0.01356303,
 -0.00008720,0.00136133,-0.00119084,-0.00073767,-0.00192429,-0.00123025
 ,0.00158056,-0.00117849,-0.00057146,-0.00001258,0.00065532,-0.00022774
 ,-0.00107016,0.00045963,-0.00137018,-0.00031538,-0.00005699,0.00068953
 ,0.00078080,-0.00037092,0.05919249,0.61047414,0.00083282,-0.00032324,-
 0.00170026,0.00220756,-0.00278006,0.00603271,-0.00498740,-0.01029740,-
 0.00461520,-0.00131084,-0.00332988,-0.07244089,-0.00575354,0.00179766,
 0.00036801,0.00330268,0.00034031,0.00808855,-0.00007793,0.00016038,-0.
 00116596,0.00003849,-0.00042023,0.00100543,0.00346867,-0.00286856,0.00
 515288,0.00167055,-0.00091840,-0.00062322,-0.00217097,0.00630916,-0.00
 473329,-0.00052446,0.00049529,-0.00181821,-0.00069847,0.00104529,-0.00
 082159,-0.00024984,0.00025856,0.00044375,-0.00065151,0.00063317,-0.000
 06140,-0.00088428,0.00006018,-0.00026533,0.00029250,0.00018346,0.00057
 258,-0.30690092,0.09876007,0.58481175,0.00054977,-0.00094438,0.0001023
 9,0.00100818,-0.00028185,-0.00084651,-0.00139967,-0.00335604,-0.000254
 06,0.01905464,0.00609732,0.00501443,-0.00626113,-0.00394082,-0.0001281
 2,0.00129530,0.00158382,-0.00042013,0.00010612,-0.00013806,-0.00002985
 ,-0.00009298,-0.00009521,-0.00011398,0.00091674,-0.00050514,0.00105503
 ,0.00038838,-0.00033021,-0.00000490,-0.00031014,0.00108834,0.00000208,
 -0.00000398,0.00001302,-0.00026844,-0.00015961,0.00021523,-0.00018906,
 -0.00006109,0.00006862,0.00008085,-0.00019446,0.00021713,-0.00004785,-
 0.00016289,0.00004072,-0.00007391,-0.00004109,0.00013627,-0.00011311,-
 0.15994868,0.07968468,0.12304040,0.17781697,0.00140406,-0.00074176,-0.
 00062811,-0.00043410,-0.00403289,0.00069090,-0.01206522,0.00094131,0.0
 0161161,0.01602023,-0.04526281,-0.04146645,0.00335285,-0.00167189,-0.0
 0422062,0.00061178,-0.00060898,0.00079824,-0.00008224,-0.00008943,-0.0
 0016618,-0.00022094,-0.00078740,0.00026635,-0.00314836,0.00106545,-0.0
 0388999,-0.00111066,-0.00029977,0.00073107,0.00469845,0.00005917,0.000
 18375,0.00028317,0.00029476,0.00106961,0.00062579,-0.00071062,0.000667
 27,0.00025619,-0.00006760,-0.00031411,0.00027991,0.00017057,-0.0001241
 9,0.00069654,0.00007777,0.00009335,-0.00025903,-0.00021227,0.00004024,
 0.08205192,-0.26533455,-0.17019399,-0.10461774,0.27477448,0.00014211,0
 .00033165,0.00001447,0.00013101,-0.00116314,-0.00097306,-0.00483899,0.
 00087321,0.00395380,0.01028669,-0.03515202,-0.00448156,0.00518088,0.00
 307563,-0.00065234,-0.00016387,-0.00140132,-0.00067967,-0.00008229,-0.
 00003368,0.00016580,-0.00021831,-0.00031553,-0.00021910,-0.00277950,0.
 00171444,-0.00341348,-0.00109417,0.00047902,0.00036164,0.00239247,-0.0
 0270733,0.00108372,0.00024293,0.00004463,0.00098920,0.00046393,-0.0006
 2581,0.00054146,0.00018381,-0.00014134,-0.00026080,0.00040918,-0.00034
 802,0.00004417,0.00056772,-0.00003502,0.00016041,-0.00008908,-0.000055
 75,0.00002459,0.12176252,-0.17055588,-0.27689086,-0.20338322,0.2241525
 8,0.34226924,0.00038458,-0.00018861,0.00015969,-0.00164689,-0.00155732
 ,-0.00134055,-0.00895078,0.00196395,0.00399594,-0.01496605,-0.03488749
 ,0.02229588,0.00421021,-0.00065911,-0.00067807,-0.00015711,-0.00172598
 ,-0.00245413,0.00014427,-0.00014739,0.00029701,-0.00001823,-0.00022880
 ,-0.00022086,0.00192217,-0.00236234,0.00050722,0.00104691,-0.00157249,
 0.00035194,0.00266305,0.00713947,-0.00078780,-0.00089995,0.00141327,-0
 .00027175,-0.00032222,0.00079841,-0.00019548,-0.00012405,0.00028420,0.
 00025700,-0.00079245,0.00107965,-0.00016423,-0.00027903,0.00021563,-0.
 00026136,-0.00022226,-0.00025603,-0.00005895,-0.29567500,-0.11449939,0
 .18794166,-0.03416369,0.01278500,0.07199040,0.34710722,-0.00079480,0.0
 0004294,0.00025409,-0.00055236,-0.00029660,-0.00016453,-0.00301087,0.0
 0218103,0.00285219,-0.04200175,-0.01541497,0.02494625,0.00489489,-0.00
 600693,-0.00225060,-0.00238876,-0.00159166,-0.00094529,0.00002636,-0.0
 0015232,0.00004284,0.00001277,-0.00011354,-0.00004445,-0.00296718,-0.0
 0035531,-0.00369490,-0.00072755,-0.00092230,0.00077770,0.00591561,-0.0
 0676066,0.00175052,0.00027100,0.00036431,0.00090451,0.00080439,-0.0006
 1438,0.00079151,0.00019610,0.00005299,-0.00022705,0.00000564,0.0005979
 2,-0.00027652,0.00050311,0.00016621,-0.00001407,-0.00032516,-0.0008037
 4,-0.00013217,-0.11956120,-0.17929018,0.08064885,0.02691283,0.04372406
 ,-0.01824978,0.13257697,0.16491661,-0.00082953,-0.00005403,0.00034328,
 0.00128798,0.00150574,-0.00028490,0.00289817,-0.00282925,-0.00115777,0
 .01962971,0.01462979,0.00591221,-0.00156185,0.00132100,0.00342197,0.00
 048512,0.00032598,-0.00038498,-0.00008218,0.00007873,0.00001463,-0.000
 07331,0.00005109,-0.00002842,-0.00109654,0.00064858,-0.00081956,-0.000
 50114,0.00051018,-0.00002082,-0.00133517,-0.00162557,0.00155787,0.0002
 1799,-0.00008977,0.00015805,0.00025421,-0.00034148,0.00023169,0.000051
 60,-0.00010103,-0.00010406,0.00032441,-0.00034999,0.00008683,0.0001617
 2,-0.00006090,0.00009683,-0.00000269,0.00032304,-0.00021631,0.18574914
 ,0.08246175,-0.23627621,0.07768081,-0.00863368,-0.06265116,-0.28245821
 ,-0.08770310,0.29029532,-0.00006445,-0.00329922,0.00083808,-0.00034869
 ,-0.00040752,-0.00044754,-0.00243542,-0.00325884,0.00103776,-0.0141048
 1,0.02267535,0.00818029,-0.15947847,0.13050493,0.05206289,0.01137615,-
 0.01058648,-0.00360657,0.00042500,-0.00053229,-0.00026679,0.00005871,0
 .00004445,-0.00005836,0.00058866,-0.00009580,0.00101327,0.00018008,0.0
 0011119,-0.00014756,-0.00209262,0.00095994,0.00007358,-0.00004455,-0.0
 0006679,-0.00017020,-0.00010971,0.00013968,-0.00015501,-0.00003769,-0.
 00000515,0.00003959,-0.00002615,-0.00007040,0.00003331,-0.00011444,-0.
 00002049,-0.00001205,0.00048016,0.00042805,-0.00084537,-0.00086246,0.0
 0285347,0.00141482,0.00166331,-0.00112762,-0.00110424,0.00073929,0.000
 20996,-0.00080024,0.16420808,-0.00324498,-0.00339098,-0.00164683,-0.00
 088034,-0.00021780,0.00042814,-0.00111192,0.00056696,-0.00057497,-0.00
 521550,0.00655567,0.00136988,0.13282672,-0.22185438,-0.06345479,0.0173
 5966,-0.01378597,-0.00729549,0.00088362,-0.00072909,-0.00022471,0.0001
 2564,0.00003074,0.00003845,0.00003431,-0.00003282,0.00030902,0.0000425
 7,0.00003964,-0.00007798,-0.00094777,0.00035690,-0.00013492,-0.0000094
 2,-0.00000360,-0.00004002,-0.00002494,0.00006493,-0.00005325,-0.000011
 47,0.00000276,0.00001329,-0.00001051,-0.00002952,0.00001644,-0.0000573
 8,-0.00001071,-0.00000414,0.00031876,0.00094841,0.00103797,0.00039951,
 -0.00029789,0.00043937,-0.00184853,-0.00128761,0.00011346,-0.00017161,
 0.00027652,-0.00006709,-0.13845642,0.23279785,0.00048017,-0.00142383,0
 .00624516,-0.00031514,0.00039385,-0.00094159,0.00124093,-0.00015035,0.
 00425068,0.00371183,-0.00256146,0.00395850,0.05159226,-0.06323041,-0.0
 6028757,0.00227950,-0.00208168,0.00438982,0.00001050,0.00005155,-0.000
 34844,-0.00005715,0.00004542,-0.00030154,0.00020703,0.00008500,-0.0001
 0893,-0.00002502,-0.00003499,0.00010294,0.00000931,-0.00024209,0.00067
 357,0.00002674,-0.00001811,0.00001744,-0.00001238,-0.00011056,0.000048
 09,0.00000132,-0.00000511,-0.00002778,0.00000674,0.00002463,-0.0000154
 4,0.00007496,0.00001317,0.00000427,-0.00085548,0.00102145,-0.00381953,
 -0.00128827,-0.00165104,-0.00506327,-0.00110283,-0.00066763,0.00061353
 ,0.00109466,0.00073401,-0.00017449,-0.05707968,0.06980816,0.05078459\\
 0.00000125,-0.00000517,0.00000054,-0.00000217,-0.00000103,-0.00001518,
 -0.00000598,0.00001486,0.00000310,0.00000519,0.00001848,0.00001169,-0.
 00001406,-0.00002431,-0.00000039,-0.00000110,0.00001577,0.00000799,-0.
 00000144,0.00000191,0.00000190,0.00000261,0.00000336,0.00000223,-0.000
 01955,-0.00001540,-0.00006574,-0.00001203,0.00002164,-0.00000994,0.000
 02584,-0.00002520,0.00003501,0.00001658,0.00001433,0.00000425,-0.00000
 159,0.00000674,0.00000009,-0.00000546,0.00001287,0.00001529,-0.0000133
 4,-0.00001458,-0.00001035,0.00002545,-0.00001777,0.00002499,0.00000039
 ,0.00000094,-0.00000292,-0.00001090,-0.00002054,-0.00000467,0.00001331
 ,0.00000621,-0.00001261,-0.00000484,0.00000556,0.00001267,0.00000184,0
 .00000132,0.00000204\\\@


 THEREFORE SHALL EVIL COME UPON THEE...
 THOU SHALT NOT KNOW FROM WHENCE IT RISETH...
 AND MISCHIEF SHALL FALL UPON THEE...
 THOU SHALT NOT BE ABLE TO PUT IT OFF...
 AND DESOLATION SHALL COME UPON THEE SUDDENLY...
 WHICH THOU SHALT NOT KNOW...

                                         ISAIAH 47.11
 Job cpu time:  0 days  8 hours 40 minutes 27.5 seconds.
 File lengths (MBytes):  RWF=    457 Int=      0 D2E=      0 Chk=     18 Scr=      1
 Normal termination of Gaussian 09 at Tue Aug 20 23:53:37 2019.
