 Entering Gaussian System, Link 0=/home/ubuntu/g09/g09
 Input=p-CH3O-Ph-OTf-RB3LYP-aug-cc-pVDZ-T348-Water.gjf
 Output=p-CH3O-Ph-OTf-RB3LYP-aug-cc-pVDZ-T348-Water.log
 Initial command:
 /home/ubuntu/g09/l1.exe /home/ubuntu/g09/Gau-9616.inp -scrdir=/home/ubuntu/g09/
 Entering Link 1 = /home/ubuntu/g09/l1.exe PID=      9618.
  
 Copyright (c) 1988,1990,1992,1993,1995,1998,2003,2009,2010,
            Gaussian, Inc.  All Rights Reserved.
  
 This is part of the Gaussian(R) 09 program.  It is based on
 the Gaussian(R) 03 system (copyright 2003, Gaussian, Inc.),
 the Gaussian(R) 98 system (copyright 1998, Gaussian, Inc.),
 the Gaussian(R) 94 system (copyright 1995, Gaussian, Inc.),
 the Gaussian 92(TM) system (copyright 1992, Gaussian, Inc.),
 the Gaussian 90(TM) system (copyright 1990, Gaussian, Inc.),
 the Gaussian 88(TM) system (copyright 1988, Gaussian, Inc.),
 the Gaussian 86(TM) system (copyright 1986, Carnegie Mellon
 University), and the Gaussian 82(TM) system (copyright 1983,
 Carnegie Mellon University). Gaussian is a federally registered
 trademark of Gaussian, Inc.
  
 This software contains proprietary and confidential information,
 including trade secrets, belonging to Gaussian, Inc.
  
 This software is provided under written license and may be
 used, copied, transmitted, or stored only in accord with that
 written license.
  
 The following legend is applicable only to US Government
 contracts under FAR:
  
                    RESTRICTED RIGHTS LEGEND
  
 Use, reproduction and disclosure by the US Government is
 subject to restrictions as set forth in subparagraphs (a)
 and (c) of the Commercial Computer Software - Restricted
 Rights clause in FAR 52.227-19.
  
 Gaussian, Inc.
 340 Quinnipiac St., Bldg. 40, Wallingford CT 06492
  
  
 ---------------------------------------------------------------
 Warning -- This program may not be used in any manner that
 competes with the business of Gaussian, Inc. or will provide
 assistance to any competitor of Gaussian, Inc.  The licensee
 of this program is prohibited from giving any competitor of
 Gaussian, Inc. access to this program.  By using this program,
 the user acknowledges that Gaussian, Inc. is engaged in the
 business of creating and licensing software in the field of
 computational chemistry and represents and warrants to the
 licensee that it is not a competitor of Gaussian, Inc. and that
 it will not use this program in any manner prohibited above.
 ---------------------------------------------------------------
  

 Cite this work as:
 Gaussian 09, Revision B.01,
 M. J. Frisch, G. W. Trucks, H. B. Schlegel, G. E. Scuseria, 
 M. A. Robb, J. R. Cheeseman, G. Scalmani, V. Barone, B. Mennucci, 
 G. A. Petersson, H. Nakatsuji, M. Caricato, X. Li, H. P. Hratchian, 
 A. F. Izmaylov, J. Bloino, G. Zheng, J. L. Sonnenberg, M. Hada, 
 M. Ehara, K. Toyota, R. Fukuda, J. Hasegawa, M. Ishida, T. Nakajima, 
 Y. Honda, O. Kitao, H. Nakai, T. Vreven, J. A. Montgomery, Jr., 
 J. E. Peralta, F. Ogliaro, M. Bearpark, J. J. Heyd, E. Brothers, 
 K. N. Kudin, V. N. Staroverov, T. Keith, R. Kobayashi, J. Normand, 
 K. Raghavachari, A. Rendell, J. C. Burant, S. S. Iyengar, J. Tomasi, 
 M. Cossi, N. Rega, J. M. Millam, M. Klene, J. E. Knox, J. B. Cross, 
 V. Bakken, C. Adamo, J. Jaramillo, R. Gomperts, R. E. Stratmann, 
 O. Yazyev, A. J. Austin, R. Cammi, C. Pomelli, J. W. Ochterski, 
 R. L. Martin, K. Morokuma, V. G. Zakrzewski, G. A. Voth, 
 P. Salvador, J. J. Dannenberg, S. Dapprich, A. D. Daniels, 
 O. Farkas, J. B. Foresman, J. V. Ortiz, J. Cioslowski, 
 and D. J. Fox, Gaussian, Inc., Wallingford CT, 2010.
 
 ******************************************
 Gaussian 09:  EM64L-G09RevB.01 12-Aug-2010
                21-Aug-2019 
 ******************************************
 %mem=500MW
 %nproc=7
 Will use up to    7 processors via shared memory.
 ----------------------------------------------------------------------
 #p opt=(cartesian,tight,maxcycles=2000) scf=(tight,maxcycles=700) NoSy
 mm scrf=(cpcm,solvent=water) Temperature=348.15 int=(grid=ultrafine) C
 PHF=(grid=fine) freq rb3lyp/aug-cc-pvdz
 ----------------------------------------------------------------------
 1/6=2000,7=10,10=7,14=-1,18=10,26=3,38=1,112=348150/1,3;
 2/12=2,15=1,17=6,18=5,29=2,40=1/2;
 3/5=16,7=10,11=2,16=1,25=1,30=1,70=2101,71=1,72=1,74=-5,75=-5,116=1/1,2,3;
 4//1;
 5/5=2,7=700,32=2,38=5,53=1,96=4/2;
 6/7=2,8=2,9=2,10=2,28=1/1;
 7/7=1,29=1,30=1/1,2,3,16;
 1/6=2000,7=10,10=7,14=-1,18=10/3(2);
 2/15=1,29=1/2;
 99/12=1/99;
 2/15=1,29=1/2;
 3/5=16,7=10,11=2,16=1,25=1,30=1,70=2105,71=1,72=1,74=-5,75=-5,116=1/1,2,3;
 4/5=5,16=3/1;
 5/5=2,7=700,32=2,38=5,53=1,96=4/2;
 7/7=1,30=1/1,2,3,16;
 1/6=2000,7=10,14=-1,18=10/3(-5);
 2/15=1,29=1/2;
 6/7=2,8=2,9=2,10=2,19=2,28=1/1;
 99/9=1,12=1/99;
 Leave Link    1 at Wed Aug 21 22:38:35 2019, MaxMem=  524288000 cpu:       0.5
 (Enter /home/ubuntu/g09/l101.exe)
 ----------------------------------
 p-CH3O-Ph-OTf-RB3LYP-aug-cc-pVDZ--
 ----------------------------------
 Symbolic Z-matrix:
 Charge =  0 Multiplicity = 1
 C                     2.85135  -0.98515  -0.23678 
 C                     1.46332  -1.04195  -0.40575 
 C                     0.72931   0.13781  -0.43049 
 C                     1.34393   1.38387  -0.28634 
 C                     2.72311   1.4411   -0.11936 
 C                     3.48407   0.25888  -0.09258 
 H                     3.418    -1.91235  -0.2209 
 H                     0.95655  -1.99852  -0.51904 
 H                     0.7435    2.29147  -0.30793 
 H                     3.23366   2.39634  -0.00713 
 O                    -0.66231   0.08153  -0.68178 
 S                    -1.65133  -0.04995   0.66054 
 O                    -1.62291   1.19255   1.45238 
 O                    -1.49503  -1.3718    1.29336 
 C                    -3.25044  -0.06608  -0.37289 
 F                    -3.35921   1.06662  -1.0674 
 F                    -3.25061  -1.11052  -1.20154 
 F                    -4.27159  -0.16981   0.48305 
 O                     4.82649   0.42641   0.07503 
 C                     5.65305  -0.73386   0.11896 
 H                     5.59618  -1.29878  -0.824 
 H                     6.67306  -0.3654    0.26245 
 H                     5.3768   -1.38724   0.96044 
 
 NAtoms=     23 NQM=     23 NQMF=      0 NMic=      0 NMicF=      0 NTot=     23.
                    Isotopes and Nuclear Properties:
 (Nuclear quadrupole moments (NQMom) in fm**2, nuclear magnetic moments (NMagM)
  in nuclear magnetons)

  Atom         1           2           3           4           5           6           7           8           9          10
 IAtWgt=          12          12          12          12          12          12           1           1           1           1
 AtmWgt=  12.0000000  12.0000000  12.0000000  12.0000000  12.0000000  12.0000000   1.0078250   1.0078250   1.0078250   1.0078250
 NucSpn=           0           0           0           0           0           0           1           1           1           1
 AtZEff=   0.0000000   0.0000000   0.0000000   0.0000000   0.0000000   0.0000000   0.0000000   0.0000000   0.0000000   0.0000000
 NQMom=    0.0000000   0.0000000   0.0000000   0.0000000   0.0000000   0.0000000   0.0000000   0.0000000   0.0000000   0.0000000
 NMagM=    0.0000000   0.0000000   0.0000000   0.0000000   0.0000000   0.0000000   2.7928460   2.7928460   2.7928460   2.7928460

  Atom        11          12          13          14          15          16          17          18          19          20
 IAtWgt=          16          32          16          16          12          19          19          19          16          12
 AtmWgt=  15.9949146  31.9720718  15.9949146  15.9949146  12.0000000  18.9984033  18.9984033  18.9984033  15.9949146  12.0000000
 NucSpn=           0           0           0           0           0           1           1           1           0           0
 AtZEff=   0.0000000   0.0000000   0.0000000   0.0000000   0.0000000   0.0000000   0.0000000   0.0000000   0.0000000   0.0000000
 NQMom=    0.0000000   0.0000000   0.0000000   0.0000000   0.0000000   0.0000000   0.0000000   0.0000000   0.0000000   0.0000000
 NMagM=    0.0000000   0.0000000   0.0000000   0.0000000   0.0000000   2.6288670   2.6288670   2.6288670   0.0000000   0.0000000

  Atom        21          22          23
 IAtWgt=           1           1           1
 AtmWgt=   1.0078250   1.0078250   1.0078250
 NucSpn=           1           1           1
 AtZEff=   0.0000000   0.0000000   0.0000000
 NQMom=    0.0000000   0.0000000   0.0000000
 NMagM=    2.7928460   2.7928460   2.7928460
 Leave Link  101 at Wed Aug 21 22:38:35 2019, MaxMem=  524288000 cpu:       0.4
 (Enter /home/ubuntu/g09/l103.exe)

 GradGradGradGradGradGradGradGradGradGradGradGradGradGradGradGradGradGrad
 Berny optimization.
 Initialization pass.
 No Z-matrix variables, so optimization will use Cartesian coordinates.
 Trust Radius=3.00D-01 FncErr=1.00D-07 GrdErr=1.00D-06
 Number of steps in this run=    138 maximum allowed number of steps=    138.
 GradGradGradGradGradGradGradGradGradGradGradGradGradGradGradGradGradGrad

 Leave Link  103 at Wed Aug 21 22:38:35 2019, MaxMem=  524288000 cpu:       0.1
 (Enter /home/ubuntu/g09/l202.exe)
 ---------------------------------------------------------------------------------------------------
                            Z-MATRIX (ANGSTROMS AND DEGREES)
   CD    Cent   Atom    N1       Length/X        N2       Alpha/Y        N3        Beta/Z          J
 ---------------------------------------------------------------------------------------------------
      1      1  C        0   2.851350         -0.985150         -0.236780
      2      2  C        0   1.463320         -1.041950         -0.405750
      3      3  C        0   0.729310          0.137810         -0.430490
      4      4  C        0   1.343930          1.383870         -0.286340
      5      5  C        0   2.723110          1.441100         -0.119360
      6      6  C        0   3.484070          0.258880         -0.092580
      7      7  H        0   3.418000         -1.912350         -0.220900
      8      8  H        0   0.956550         -1.998520         -0.519040
      9      9  H        0   0.743500          2.291470         -0.307930
     10     10  H        0   3.233660          2.396340         -0.007130
     11     11  O        0  -0.662310          0.081530         -0.681780
     12     12  S        0  -1.651330         -0.049950          0.660540
     13     13  O        0  -1.622910          1.192550          1.452380
     14     14  O        0  -1.495030         -1.371800          1.293360
     15     15  C        0  -3.250440         -0.066080         -0.372890
     16     16  F        0  -3.359210          1.066620         -1.067400
     17     17  F        0  -3.250610         -1.110520         -1.201540
     18     18  F        0  -4.271590         -0.169810          0.483050
     19     19  O        0   4.826490          0.426410          0.075030
     20     20  C        0   5.653050         -0.733860          0.118960
     21     21  H        0   5.596180         -1.298780         -0.824000
     22     22  H        0   6.673060         -0.365400          0.262450
     23     23  H        0   5.376800         -1.387240          0.960440
 ---------------------------------------------------------------------------------------------------
                         Z-Matrix orientation:                         
 ---------------------------------------------------------------------
 Center     Atomic      Atomic             Coordinates (Angstroms)
 Number     Number       Type             X           Y           Z
 ---------------------------------------------------------------------
      1          6           0        2.851350   -0.985150   -0.236780
      2          6           0        1.463320   -1.041950   -0.405750
      3          6           0        0.729310    0.137810   -0.430490
      4          6           0        1.343930    1.383870   -0.286340
      5          6           0        2.723110    1.441100   -0.119360
      6          6           0        3.484070    0.258880   -0.092580
      7          1           0        3.418000   -1.912350   -0.220900
      8          1           0        0.956550   -1.998520   -0.519040
      9          1           0        0.743500    2.291470   -0.307930
     10          1           0        3.233660    2.396340   -0.007130
     11          8           0       -0.662310    0.081530   -0.681780
     12         16           0       -1.651330   -0.049950    0.660540
     13          8           0       -1.622910    1.192550    1.452380
     14          8           0       -1.495030   -1.371800    1.293360
     15          6           0       -3.250440   -0.066080   -0.372890
     16          9           0       -3.359210    1.066620   -1.067400
     17          9           0       -3.250610   -1.110520   -1.201540
     18          9           0       -4.271590   -0.169810    0.483050
     19          8           0        4.826490    0.426410    0.075030
     20          6           0        5.653050   -0.733860    0.118960
     21          1           0        5.596180   -1.298780   -0.824000
     22          1           0        6.673060   -0.365400    0.262450
     23          1           0        5.376800   -1.387240    0.960440
 ---------------------------------------------------------------------
                    Distance matrix (angstroms):
                    1          2          3          4          5
     1  C    0.000000
     2  C    1.399430   0.000000
     3  C    2.408654   1.389682   0.000000
     4  C    2.808385   2.431690   1.396854   0.000000
     5  C    2.432472   2.799040   2.402208   1.390430   0.000000
     6  C    1.403118   2.423564   2.778047   2.425561   1.406208
     7  H    1.086759   2.147682   3.387645   3.895012   3.426195
     8  H    2.167223   1.088429   2.150206   3.412444   3.887347
     9  H    3.896708   3.411656   2.157191   1.088448   2.162763
    10  H    3.410773   3.887781   3.398817   2.161974   1.088917
    11  O    3.698870   2.420063   1.415246   2.424348   3.691316
    12  S    4.685500   3.438326   2.625461   3.453115   4.686918
    13  O    5.254963   4.239157   3.192274   3.444109   4.628178
    14  O    4.624051   3.427479   3.193473   4.260148   5.263163
    15  C    6.172119   4.813828   3.985386   4.818514   6.165969
    16  F    6.593235   5.304776   4.240795   4.778099   6.167141
    17  F    6.179029   4.781121   4.241770   5.307482   6.585378
    18  F    7.205499   5.868542   5.092955   5.877070   7.203038
    19  O    2.447633   3.701100   4.138324   3.629813   2.343414
    20  C    2.835352   4.233684   5.030400   4.818461   3.656747
    21  H    2.824408   4.161902   5.089702   5.056414   4.032120
    22  H    3.903689   5.295810   6.005127   5.635667   4.360198
    23  H    2.823634   4.159450   5.085236   5.049510   4.025860
                    6          7          8          9         10
     6  C    0.000000
     7  H    2.176022   0.000000
     8  H    3.415564   2.480937   0.000000
     9  H    3.418848   4.983235   4.300462   0.000000
    10  H    2.153774   4.317926   4.976151   2.510453   0.000000
    11  O    4.191787   4.564745   2.640795   2.645732   4.581711
    12  S    5.199509   5.472072   3.462567   3.486458   5.503930
    13  O    5.416630   6.152320   4.552256   3.147414   5.212058
    14  O    5.419537   5.169433   3.112526   4.581997   6.184712
    15  C    6.748170   6.920976   4.631895   4.638299   6.945563
    16  F    6.959396   7.451268   5.321801   4.348480   6.808690
    17  F    6.961391   6.787853   4.353682   5.322123   7.467961
    18  F    7.788799   7.915920   5.628660   5.642223   7.946960
    19  O    1.363177   2.746128   4.605393   4.505099   2.534656
    20  C    2.394735   2.549469   4.905458   5.782606   3.958219
    21  H    2.724388   2.341936   4.702000   6.058443   4.461243
    22  H    3.268857   3.636220   5.996357   6.522574   4.419203
    23  H    2.720476   2.346956   4.701184   6.050549   4.454741
                   11         12         13         14         15
    11  O    0.000000
    12  S    1.672504   0.000000
    13  O    2.590706   1.473643   0.000000
    14  O    2.589743   1.473831   2.572456   0.000000
    15  C    2.610674   1.904046   2.750384   2.750047   0.000000
    16  F    2.896960   2.673829   3.062660   3.872241   1.333111
    17  F    2.896624   2.673920   3.872574   3.061838   1.333235
    18  F    3.800908   2.628998   3.132273   3.132199   1.336466
    19  O    5.551453   6.521648   6.639188   6.684273   8.104318
    20  C    6.417929   7.356290   7.643864   7.271948   8.942034
    21  H    6.410474   7.502655   7.968933   7.400933   8.943474
    22  H    7.409384   8.339871   8.524451   8.294173   9.948322
    23  H    6.428454   7.160509   7.476180   6.879907   8.829071
                   16         17         18         19         20
    16  F    0.000000
    17  F    2.183970   0.000000
    18  F    2.182909   2.182929   0.000000
    19  O    8.289795   8.320537   9.126720   0.000000
    20  C    9.266607   9.008926   9.947321   1.425257   0.000000
    21  H    9.265709   8.856843  10.017776   2.092118   1.100701
    22  H   10.220843  10.058712  10.948620   2.017897   1.093971
    23  H    9.297926   8.898479   9.736604   2.091917   1.100594
                   21         22         23
    21  H    0.000000
    22  H    1.791994   0.000000
    23  H    1.800050   1.792104   0.000000
 Symmetry turned off by external request.
 Stoichiometry    C8H7F3O4S
 Framework group  C1[X(C8H7F3O4S)]
 Deg. of freedom    63
 Full point group                 C1      NOp   1
 Rotational constants (GHZ):      1.4455974      0.2043998      0.1996723
 Leave Link  202 at Wed Aug 21 22:38:35 2019, MaxMem=  524288000 cpu:       0.0
 (Enter /home/ubuntu/g09/l301.exe)
 Standard basis: Aug-CC-pVDZ (5D, 7F)
 Ernie: Thresh=  0.10000D-02 Tol=  0.10000D-05 Strict=F.
 Ernie:  40 primitive shells out of 477 were deleted.
 Integral buffers will be    131072 words long.
 Raffenetti 2 integral format.
 Two-electron integral symmetry is turned off.
   435 basis functions,   803 primitive gaussians,   467 cartesian basis functions
    65 alpha electrons       65 beta electrons
       nuclear repulsion energy      1316.3061871566 Hartrees.
 IExCor=  402 DFT=T Ex+Corr=B3LYP ExCW=0 ScaHFX=  0.200000
 ScaDFX=  0.800000  0.720000  1.000000  0.810000 ScalE2=  1.000000  1.000000
 IRadAn=      5 IRanWt=     -1 IRanGd=            0 ICorTp=0
 NAtoms=   23 NActive=   23 NUniq=   23 SFac= 1.00D+00 NAtFMM=   50 NAOKFM=F Big=F
 ------------------------------------------------------------------------------
 Polarizable Continuum Model (PCM)
 =================================
 Model                : C-PCM.
 Atomic radii         : UFF (Universal Force Field).
 Polarization charges : Total charges.
 Charge compensation  : None.
 Solution method      : Matrix inversion.
 Cavity type          : Scaled VdW (van der Waals Surface) (Alpha=1.100).
 Cavity algorithm     : GePol (No added spheres)
                        Default sphere list used, NSphG=   23.
                        Lebedev-Laikov grids with approx.  5.0 points / Ang**2.
                        Smoothing algorithm: Karplus/York (Gamma=1.0000).
                        Polarization charges: spherical gaussians, with
                                              point-specific exponents (IZeta= 3).
                        Self-potential: point-specific (ISelfS= 7).
                        Self-field    : sphere-specific E.n sum rule (ISelfD= 2).
 1st derivatives      : Analytical E(r).r(x)/FMM algorithm (CHGder, D1EAlg=3).
                        Cavity 1st derivative terms included.
 Solvent              : Water, Eps=  78.355300 Eps(inf)=   1.777849
 ------------------------------------------------------------------------------
 GePol: Number of generator spheres                  =      23
 GePol: Total number of spheres                      =      23
 GePol: Number of exposed spheres                    =      23 (100.00%)
 GePol: Number of points                             =    2163
 GePol: Average weight of points                     =       0.13
 GePol: Minimum weight of points                     =   0.12D-10
 GePol: Maximum weight of points                     =    0.20577
 GePol: Number of points with low weight             =      94
 GePol: Fraction of low-weight points (<1% of avg)   =       4.35%
 GePol: Cavity surface area                          =    279.639 Ang**2
 GePol: Cavity volume                                =    285.762 Ang**3
 Leave Link  301 at Wed Aug 21 22:38:35 2019, MaxMem=  524288000 cpu:       0.4
 (Enter /home/ubuntu/g09/l302.exe)
 NPDir=0 NMtPBC=     1 NCelOv=     1 NCel=       1 NClECP=     1 NCelD=      1
         NCelK=      1 NCelE2=     1 NClLst=     1 CellRange=     0.0.
 One-electron integrals computed using PRISM.
 NBasis=   435 RedAO= T  NBF=   435
 NBsUse=   435 1.00D-06 NBFU=   435
 Precomputing XC quadrature grid using
 IXCGrd= 2 IRadAn=           5 IRanWt=          -1 IRanGd=           0 AccXCQ= 0.00D+00.
 NRdTot=    1988 NPtTot=      536998 NUsed=      551226 NTot=      551258
 NSgBfM=   464   464   464   464   464 NAtAll=    23    23.
 Leave Link  302 at Wed Aug 21 22:38:36 2019, MaxMem=  524288000 cpu:       5.0
 (Enter /home/ubuntu/g09/l303.exe)
 DipDrv:  MaxL=1.
 Leave Link  303 at Wed Aug 21 22:38:36 2019, MaxMem=  524288000 cpu:       0.6
 (Enter /home/ubuntu/g09/l401.exe)
 Harris functional with IExCor=  402 diagonalized for initial guess.
 ExpMin= 2.97D-02 ExpMax= 1.11D+05 ExpMxC= 1.07D+03 IAcc=3 IRadAn=         5 AccDes= 0.00D+00
 HarFok:  IExCor=  402 AccDes= 0.00D+00 IRadAn=         5 IDoV= 1
 ScaDFX=  1.000000  1.000000  1.000000  1.000000
 FoFCou: FMM=F IPFlag=           0 FMFlag=      100000 FMFlg1=           0
         NFxFlg=           0 DoJE=T BraDBF=F KetDBF=T FulRan=T
         Omega=  0.000000  0.000000  1.000000  0.000000  0.000000 ICntrl=     500 IOpCl=  0
         NMat0=    1 NMatS0=    1 NMatT0=    0 NMatD0=    1 NMtDS0=    0 NMtDT0=    0
         I1Cent=           4 NGrid=           0.
 Symmetry not used in FoFCou.
 Harris En= -1307.69003976816    
 Leave Link  401 at Wed Aug 21 22:38:41 2019, MaxMem=  524288000 cpu:      40.4
 (Enter /home/ubuntu/g09/l502.exe)
 Closed shell SCF:
 Requested convergence on RMS density matrix=1.00D-08 within 700 cycles.
 Requested convergence on MAX density matrix=1.00D-06.
 Requested convergence on             energy=1.00D-06.
 No special actions if energy rises.
 Using DIIS extrapolation, IDIIS=  1040.
 Two-electron integral symmetry not used.
       551006 words used for storage of precomputed grid.
 IEnd=     1706012 IEndB=     1706012 NGot=   524288000 MDV=   523291945
 LenX=   523291945 LenY=   523073389
 Fock matrices will be formed incrementally for  20 cycles.

 Cycle   1  Pass 1  IDiag  1:
 FoFCou: FMM=F IPFlag=           0 FMFlag=      100000 FMFlg1=           0
         NFxFlg=           0 DoJE=F BraDBF=F KetDBF=F FulRan=T
         Omega=  0.000000  0.000000  1.000000  0.000000  0.000000 ICntrl=       0 IOpCl=  0
         NMat0=    1 NMatS0=    1 NMatT0=    0 NMatD0=    1 NMtDS0=    0 NMtDT0=    0
         I1Cent=           0 NGrid=           0.
 Symmetry not used in FoFCou.
 E= -1307.22466045442    
 DIIS: error= 1.95D-02 at cycle   1 NSaved=   1.
 NSaved= 1 IEnMin= 1 EnMin= -1307.22466045442     IErMin= 1 ErrMin= 1.95D-02
 ErrMax= 1.95D-02 EMaxC= 1.00D-01 BMatC= 5.81D-01 BMatP= 5.81D-01
 IDIUse=3 WtCom= 8.05D-01 WtEn= 1.95D-01
 Coeff-Com:  0.100D+01
 Coeff-En:   0.100D+01
 Coeff:      0.100D+01
 Gap=     0.259 Goal=   None    Shift=    0.000
 GapD=    0.259 DampG=1.000 DampE=0.500 DampFc=0.5000 IDamp=-1.
 Damping current iteration by 5.00D-01
 RMSDP=3.64D-02 MaxDP=2.73D+00              OVMax= 3.52D-01

 Cycle   2  Pass 1  IDiag  1:
 RMSU=  7.19D-03    CP:  8.71D-01
 E= -1307.20102438285     Delta-E=        0.023636071568 Rises=F Damp=T
 DIIS: error= 1.02D-02 at cycle   2 NSaved=   2.
 NSaved= 2 IEnMin= 1 EnMin= -1307.22466045442     IErMin= 2 ErrMin= 1.02D-02
 ErrMax= 1.02D-02 EMaxC= 1.00D-01 BMatC= 1.71D-01 BMatP= 5.81D-01
 IDIUse=3 WtCom= 8.98D-01 WtEn= 1.02D-01
 Coeff-Com:  0.331D+00 0.669D+00
 Coeff-En:   0.517D+00 0.483D+00
 Coeff:      0.350D+00 0.650D+00
 Gap=     0.204 Goal=   None    Shift=    0.000
 RMSDP=1.80D-02 MaxDP=1.57D+00 DE= 2.36D-02 OVMax= 2.93D-01

 Cycle   3  Pass 1  IDiag  1:
 RMSU=  3.68D-03    CP:  7.22D-01  1.08D+00
 E= -1307.67288907876     Delta-E=       -0.471864695915 Rises=F Damp=F
 DIIS: error= 4.76D-03 at cycle   3 NSaved=   3.
 NSaved= 3 IEnMin= 3 EnMin= -1307.67288907876     IErMin= 3 ErrMin= 4.76D-03
 ErrMax= 4.76D-03 EMaxC= 1.00D-01 BMatC= 4.87D-02 BMatP= 1.71D-01
 IDIUse=3 WtCom= 9.52D-01 WtEn= 4.76D-02
 Coeff-Com:  0.135D+00 0.378D+00 0.487D+00
 Coeff-En:   0.000D+00 0.000D+00 0.100D+01
 Coeff:      0.129D+00 0.360D+00 0.511D+00
 Gap=     0.202 Goal=   None    Shift=    0.000
 RMSDP=2.65D-03 MaxDP=1.51D-01 DE=-4.72D-01 OVMax= 5.06D-02

 Cycle   4  Pass 1  IDiag  1:
 RMSU=  1.12D-03    CP:  7.36D-01  9.88D-01  7.95D-01
 E= -1307.70834269587     Delta-E=       -0.035453617107 Rises=F Damp=F
 DIIS: error= 2.25D-03 at cycle   4 NSaved=   4.
 NSaved= 4 IEnMin= 4 EnMin= -1307.70834269587     IErMin= 4 ErrMin= 2.25D-03
 ErrMax= 2.25D-03 EMaxC= 1.00D-01 BMatC= 7.85D-03 BMatP= 4.87D-02
 IDIUse=3 WtCom= 9.78D-01 WtEn= 2.25D-02
 Coeff-Com:  0.121D-01 0.115D+00 0.295D+00 0.578D+00
 Coeff-En:   0.000D+00 0.000D+00 0.938D-01 0.906D+00
 Coeff:      0.118D-01 0.112D+00 0.291D+00 0.585D+00
 Gap=     0.199 Goal=   None    Shift=    0.000
 RMSDP=5.56D-04 MaxDP=3.57D-02 DE=-3.55D-02 OVMax= 1.64D-02

 Cycle   5  Pass 1  IDiag  1:
 RMSU=  3.33D-04    CP:  7.35D-01  9.78D-01  7.84D-01  8.66D-01
 E= -1307.71360085363     Delta-E=       -0.005258157754 Rises=F Damp=F
 DIIS: error= 8.09D-04 at cycle   5 NSaved=   5.
 NSaved= 5 IEnMin= 5 EnMin= -1307.71360085363     IErMin= 5 ErrMin= 8.09D-04
 ErrMax= 8.09D-04 EMaxC= 1.00D-01 BMatC= 9.73D-04 BMatP= 7.85D-03
 IDIUse=3 WtCom= 9.92D-01 WtEn= 8.09D-03
 Coeff-Com: -0.949D-02 0.284D-01 0.102D+00 0.327D+00 0.552D+00
 Coeff-En:   0.000D+00 0.000D+00 0.000D+00 0.672D-01 0.933D+00
 Coeff:     -0.942D-02 0.282D-01 0.102D+00 0.325D+00 0.555D+00
 Gap=     0.196 Goal=   None    Shift=    0.000
 RMSDP=3.60D-04 MaxDP=1.78D-02 DE=-5.26D-03 OVMax= 8.09D-03

 Cycle   6  Pass 1  IDiag  1:
 RMSU=  1.44D-04    CP:  7.34D-01  1.00D+00  7.96D-01  8.20D-01  7.53D-01
 E= -1307.71439330554     Delta-E=       -0.000792451914 Rises=F Damp=F
 DIIS: error= 1.92D-04 at cycle   6 NSaved=   6.
 NSaved= 6 IEnMin= 6 EnMin= -1307.71439330554     IErMin= 6 ErrMin= 1.92D-04
 ErrMax= 1.92D-04 EMaxC= 1.00D-01 BMatC= 6.87D-05 BMatP= 9.73D-04
 IDIUse=3 WtCom= 9.98D-01 WtEn= 1.92D-03
 Coeff-Com: -0.604D-02 0.524D-02 0.208D-01 0.969D-01 0.278D+00 0.606D+00
 Coeff-En:   0.000D+00 0.000D+00 0.000D+00 0.000D+00 0.000D+00 0.100D+01
 Coeff:     -0.603D-02 0.523D-02 0.207D-01 0.967D-01 0.277D+00 0.606D+00
 Gap=     0.197 Goal=   None    Shift=    0.000
 RMSDP=1.10D-04 MaxDP=8.96D-03 DE=-7.92D-04 OVMax= 2.81D-03

 Cycle   7  Pass 1  IDiag  1:
 RMSU=  4.75D-05    CP:  7.34D-01  9.99D-01  7.99D-01  8.31D-01  7.61D-01
                    CP:  5.97D-01
 E= -1307.71445072235     Delta-E=       -0.000057416809 Rises=F Damp=F
 DIIS: error= 5.83D-05 at cycle   7 NSaved=   7.
 NSaved= 7 IEnMin= 7 EnMin= -1307.71445072235     IErMin= 7 ErrMin= 5.83D-05
 ErrMax= 5.83D-05 EMaxC= 1.00D-01 BMatC= 4.25D-06 BMatP= 6.87D-05
 IDIUse=1 WtCom= 1.00D+00 WtEn= 0.00D+00
 Coeff-Com: -0.267D-02 0.129D-02 0.384D-02 0.284D-01 0.107D+00 0.297D+00
 Coeff-Com:  0.565D+00
 Coeff:     -0.267D-02 0.129D-02 0.384D-02 0.284D-01 0.107D+00 0.297D+00
 Coeff:      0.565D+00
 Gap=     0.197 Goal=   None    Shift=    0.000
 RMSDP=3.11D-05 MaxDP=3.00D-03 DE=-5.74D-05 OVMax= 8.73D-04

 Cycle   8  Pass 1  IDiag  1:
 RMSU=  9.19D-06    CP:  7.34D-01  1.00D+00  7.98D-01  8.33D-01  7.55D-01
                    CP:  6.79D-01  6.81D-01
 E= -1307.71445460596     Delta-E=       -0.000003883613 Rises=F Damp=F
 DIIS: error= 1.95D-05 at cycle   8 NSaved=   8.
 NSaved= 8 IEnMin= 8 EnMin= -1307.71445460596     IErMin= 8 ErrMin= 1.95D-05
 ErrMax= 1.95D-05 EMaxC= 1.00D-01 BMatC= 4.97D-07 BMatP= 4.25D-06
 IDIUse=1 WtCom= 1.00D+00 WtEn= 0.00D+00
 Coeff-Com: -0.762D-03 0.433D-04-0.105D-02 0.220D-02 0.237D-01 0.828D-01
 Coeff-Com:  0.289D+00 0.604D+00
 Coeff:     -0.762D-03 0.433D-04-0.105D-02 0.220D-02 0.237D-01 0.828D-01
 Coeff:      0.289D+00 0.604D+00
 Gap=     0.197 Goal=   None    Shift=    0.000
 RMSDP=8.06D-06 MaxDP=6.70D-04 DE=-3.88D-06 OVMax= 2.95D-04

 Cycle   9  Pass 1  IDiag  1:
 RMSU=  3.75D-06    CP:  7.34D-01  9.99D-01  7.98D-01  8.32D-01  7.63D-01
                    CP:  6.73D-01  7.18D-01  7.22D-01
 E= -1307.71445503471     Delta-E=       -0.000000428747 Rises=F Damp=F
 DIIS: error= 7.44D-06 at cycle   9 NSaved=   9.
 NSaved= 9 IEnMin= 9 EnMin= -1307.71445503471     IErMin= 9 ErrMin= 7.44D-06
 ErrMax= 7.44D-06 EMaxC= 1.00D-01 BMatC= 6.37D-08 BMatP= 4.97D-07
 IDIUse=1 WtCom= 1.00D+00 WtEn= 0.00D+00
 Coeff-Com: -0.150D-03-0.376D-04-0.962D-03-0.172D-02 0.172D-02 0.127D-01
 Coeff-Com:  0.950D-01 0.325D+00 0.569D+00
 Coeff:     -0.150D-03-0.376D-04-0.962D-03-0.172D-02 0.172D-02 0.127D-01
 Coeff:      0.950D-01 0.325D+00 0.569D+00
 Gap=     0.197 Goal=   None    Shift=    0.000
 RMSDP=3.20D-06 MaxDP=2.26D-04 DE=-4.29D-07 OVMax= 1.02D-04

 Cycle  10  Pass 1  IDiag  1:
 RMSU=  1.30D-06    CP:  7.34D-01  9.99D-01  7.98D-01  8.33D-01  7.62D-01
                    CP:  6.72D-01  7.31D-01  7.59D-01  6.70D-01
 E= -1307.71445509287     Delta-E=       -0.000000058156 Rises=F Damp=F
 DIIS: error= 1.94D-06 at cycle  10 NSaved=  10.
 NSaved=10 IEnMin=10 EnMin= -1307.71445509287     IErMin=10 ErrMin= 1.94D-06
 ErrMax= 1.94D-06 EMaxC= 1.00D-01 BMatC= 5.25D-09 BMatP= 6.37D-08
 IDIUse=1 WtCom= 1.00D+00 WtEn= 0.00D+00
 Coeff-Com: -0.257D-04 0.859D-05-0.377D-03-0.942D-03-0.731D-03 0.173D-03
 Coeff-Com:  0.261D-01 0.111D+00 0.287D+00 0.578D+00
 Coeff:     -0.257D-04 0.859D-05-0.377D-03-0.942D-03-0.731D-03 0.173D-03
 Coeff:      0.261D-01 0.111D+00 0.287D+00 0.578D+00
 Gap=     0.197 Goal=   None    Shift=    0.000
 RMSDP=8.09D-07 MaxDP=7.17D-05 DE=-5.82D-08 OVMax= 2.75D-05

 Cycle  11  Pass 1  IDiag  1:
 RMSU=  2.84D-07    CP:  7.34D-01  1.00D+00  7.98D-01  8.33D-01  7.62D-01
                    CP:  6.73D-01  7.29D-01  7.63D-01  7.42D-01  7.60D-01
 E= -1307.71445509748     Delta-E=       -0.000000004618 Rises=F Damp=F
 DIIS: error= 6.50D-07 at cycle  11 NSaved=  11.
 NSaved=11 IEnMin=11 EnMin= -1307.71445509748     IErMin=11 ErrMin= 6.50D-07
 ErrMax= 6.50D-07 EMaxC= 1.00D-01 BMatC= 5.60D-10 BMatP= 5.25D-09
 IDIUse=1 WtCom= 1.00D+00 WtEn= 0.00D+00
 Coeff-Com:  0.125D-05 0.533D-05-0.119D-03-0.373D-03-0.692D-03-0.159D-02
 Coeff-Com:  0.355D-02 0.226D-01 0.889D-01 0.303D+00 0.584D+00
 Coeff:      0.125D-05 0.533D-05-0.119D-03-0.373D-03-0.692D-03-0.159D-02
 Coeff:      0.355D-02 0.226D-01 0.889D-01 0.303D+00 0.584D+00
 Gap=     0.197 Goal=   None    Shift=    0.000
 RMSDP=2.14D-07 MaxDP=1.83D-05 DE=-4.62D-09 OVMax= 5.23D-06

 Cycle  12  Pass 1  IDiag  1:
 RMSU=  8.61D-08    CP:  7.34D-01  1.00D+00  7.98D-01  8.33D-01  7.62D-01
                    CP:  6.73D-01  7.30D-01  7.63D-01  7.39D-01  7.86D-01
                    CP:  7.89D-01
 E= -1307.71445509784     Delta-E=       -0.000000000360 Rises=F Damp=F
 DIIS: error= 3.63D-07 at cycle  12 NSaved=  12.
 NSaved=12 IEnMin=12 EnMin= -1307.71445509784     IErMin=12 ErrMin= 3.63D-07
 ErrMax= 3.63D-07 EMaxC= 1.00D-01 BMatC= 1.15D-10 BMatP= 5.60D-10
 IDIUse=1 WtCom= 1.00D+00 WtEn= 0.00D+00
 Coeff-Com:  0.354D-05 0.237D-05-0.401D-04-0.148D-03-0.392D-03-0.111D-02
 Coeff-Com: -0.509D-03 0.216D-02 0.255D-01 0.136D+00 0.379D+00 0.459D+00
 Coeff:      0.354D-05 0.237D-05-0.401D-04-0.148D-03-0.392D-03-0.111D-02
 Coeff:     -0.509D-03 0.216D-02 0.255D-01 0.136D+00 0.379D+00 0.459D+00
 Gap=     0.197 Goal=   None    Shift=    0.000
 RMSDP=8.08D-08 MaxDP=5.09D-06 DE=-3.60D-10 OVMax= 2.61D-06

 Cycle  13  Pass 1  IDiag  1:
 RMSU=  3.64D-08    CP:  7.34D-01  1.00D+00  7.98D-01  8.33D-01  7.62D-01
                    CP:  6.73D-01  7.30D-01  7.63D-01  7.36D-01  8.02D-01
                    CP:  7.82D-01  8.75D-01
 E= -1307.71445509795     Delta-E=       -0.000000000106 Rises=F Damp=F
 DIIS: error= 9.31D-08 at cycle  13 NSaved=  13.
 NSaved=13 IEnMin=13 EnMin= -1307.71445509795     IErMin=13 ErrMin= 9.31D-08
 ErrMax= 9.31D-08 EMaxC= 1.00D-01 BMatC= 8.13D-12 BMatP= 1.15D-10
 IDIUse=1 WtCom= 1.00D+00 WtEn= 0.00D+00
 Coeff-Com:  0.135D-05 0.104D-05-0.514D-05-0.255D-04-0.105D-03-0.343D-03
 Coeff-Com: -0.574D-03-0.183D-02 0.123D-02 0.308D-01 0.117D+00 0.247D+00
 Coeff-Com:  0.606D+00
 Coeff:      0.135D-05 0.104D-05-0.514D-05-0.255D-04-0.105D-03-0.343D-03
 Coeff:     -0.574D-03-0.183D-02 0.123D-02 0.308D-01 0.117D+00 0.247D+00
 Coeff:      0.606D+00
 Gap=     0.197 Goal=   None    Shift=    0.000
 RMSDP=2.29D-08 MaxDP=1.23D-06 DE=-1.06D-10 OVMax= 7.26D-07

 Cycle  14  Pass 1  IDiag  1:
 RMSU=  1.01D-08    CP:  7.34D-01  1.00D+00  7.98D-01  8.33D-01  7.62D-01
                    CP:  6.73D-01  7.30D-01  7.63D-01  7.38D-01  8.04D-01
                    CP:  8.03D-01  8.79D-01  8.02D-01
 E= -1307.71445509796     Delta-E=       -0.000000000006 Rises=F Damp=F
 DIIS: error= 3.44D-08 at cycle  14 NSaved=  14.
 NSaved=14 IEnMin=14 EnMin= -1307.71445509796     IErMin=14 ErrMin= 3.44D-08
 ErrMax= 3.44D-08 EMaxC= 1.00D-01 BMatC= 1.48D-12 BMatP= 8.13D-12
 IDIUse=1 WtCom= 1.00D+00 WtEn= 0.00D+00
 Coeff-Com:  0.540D-06 0.406D-06 0.141D-05 0.647D-07-0.266D-04-0.107D-03
 Coeff-Com: -0.333D-03-0.151D-02-0.213D-02 0.499D-02 0.337D-01 0.104D+00
 Coeff-Com:  0.372D+00 0.490D+00
 Coeff:      0.540D-06 0.406D-06 0.141D-05 0.647D-07-0.266D-04-0.107D-03
 Coeff:     -0.333D-03-0.151D-02-0.213D-02 0.499D-02 0.337D-01 0.104D+00
 Coeff:      0.372D+00 0.490D+00
 Gap=     0.197 Goal=   None    Shift=    0.000
 RMSDP=7.93D-09 MaxDP=3.92D-07 DE=-6.37D-12 OVMax= 2.53D-07

 Error on total polarization charges =  0.01474
 SCF Done:  E(RB3LYP) =  -1307.71445510     A.U. after   14 cycles
             Convg  =    0.7931D-08             -V/T =  2.0050
 KE= 1.301152848991D+03 PE=-5.715840779870D+03 EE= 1.790667288625D+03
 Leave Link  502 at Wed Aug 21 22:47:14 2019, MaxMem=  524288000 cpu:    3586.7
 (Enter /home/ubuntu/g09/l601.exe)
 Copying SCF densities to generalized density rwf, IOpCl= 0 IROHF=0.

 **********************************************************************

            Population analysis using the SCF density.

 **********************************************************************

 Alpha  occ. eigenvalues --  -89.17484 -24.79281 -24.79277 -24.79251 -19.23795
 Alpha  occ. eigenvalues --  -19.20087 -19.20080 -19.19287 -10.50144 -10.26752
 Alpha  occ. eigenvalues --  -10.26692 -10.24193 -10.21462 -10.21412 -10.20748
 Alpha  occ. eigenvalues --  -10.20603  -8.20367  -6.16772  -6.16631  -6.16558
 Alpha  occ. eigenvalues --   -1.37185  -1.28582  -1.28525  -1.17644  -1.08415
 Alpha  occ. eigenvalues --   -1.08335  -1.05644  -0.87732  -0.80255  -0.77647
 Alpha  occ. eigenvalues --   -0.76602  -0.72273  -0.69298  -0.65022  -0.64731
 Alpha  occ. eigenvalues --   -0.64075  -0.63039  -0.60038  -0.56590  -0.54503
 Alpha  occ. eigenvalues --   -0.52621  -0.51879  -0.51542  -0.51093  -0.50414
 Alpha  occ. eigenvalues --   -0.48509  -0.48288  -0.47762  -0.47472  -0.46542
 Alpha  occ. eigenvalues --   -0.46058  -0.44722  -0.43730  -0.41969  -0.40688
 Alpha  occ. eigenvalues --   -0.39922  -0.38639  -0.37928  -0.36841  -0.36007
 Alpha  occ. eigenvalues --   -0.34822  -0.33603  -0.33413  -0.27848  -0.24283
 Alpha virt. eigenvalues --   -0.04557  -0.03544  -0.02026  -0.01516  -0.00459
 Alpha virt. eigenvalues --    0.00351   0.00648   0.01653   0.01908   0.02239
 Alpha virt. eigenvalues --    0.02825   0.03147   0.03984   0.04278   0.05014
 Alpha virt. eigenvalues --    0.05653   0.06221   0.06368   0.06764   0.07056
 Alpha virt. eigenvalues --    0.07585   0.08483   0.09003   0.09375   0.09559
 Alpha virt. eigenvalues --    0.09903   0.10145   0.10691   0.11112   0.11335
 Alpha virt. eigenvalues --    0.11447   0.12011   0.12135   0.12383   0.12647
 Alpha virt. eigenvalues --    0.13206   0.13410   0.14023   0.14378   0.14453
 Alpha virt. eigenvalues --    0.14971   0.15480   0.15789   0.16141   0.17165
 Alpha virt. eigenvalues --    0.17220   0.17455   0.18538   0.19126   0.19502
 Alpha virt. eigenvalues --    0.19867   0.20472   0.21088   0.21316   0.21584
 Alpha virt. eigenvalues --    0.22351   0.22591   0.23140   0.23283   0.23707
 Alpha virt. eigenvalues --    0.24383   0.24477   0.24702   0.25159   0.25303
 Alpha virt. eigenvalues --    0.25439   0.26074   0.26425   0.26566   0.27421
 Alpha virt. eigenvalues --    0.27663   0.27702   0.28204   0.28541   0.29645
 Alpha virt. eigenvalues --    0.30001   0.30108   0.30311   0.30977   0.31117
 Alpha virt. eigenvalues --    0.31420   0.31868   0.32476   0.32846   0.32937
 Alpha virt. eigenvalues --    0.33763   0.33844   0.34071   0.34900   0.35040
 Alpha virt. eigenvalues --    0.35671   0.36221   0.37188   0.37536   0.38233
 Alpha virt. eigenvalues --    0.38593   0.39769   0.40192   0.40616   0.41200
 Alpha virt. eigenvalues --    0.41936   0.42322   0.43056   0.43570   0.45499
 Alpha virt. eigenvalues --    0.45547   0.45945   0.46117   0.46488   0.46943
 Alpha virt. eigenvalues --    0.48755   0.49913   0.50487   0.50687   0.51153
 Alpha virt. eigenvalues --    0.52209   0.52493   0.52744   0.53563   0.54816
 Alpha virt. eigenvalues --    0.54992   0.55733   0.56086   0.56336   0.56963
 Alpha virt. eigenvalues --    0.57481   0.58344   0.59152   0.60303   0.61217
 Alpha virt. eigenvalues --    0.61787   0.62154   0.63057   0.63502   0.63590
 Alpha virt. eigenvalues --    0.64093   0.64429   0.64937   0.65586   0.66340
 Alpha virt. eigenvalues --    0.66473   0.67228   0.68037   0.68207   0.68667
 Alpha virt. eigenvalues --    0.69888   0.70195   0.70898   0.72470   0.73135
 Alpha virt. eigenvalues --    0.73555   0.74646   0.75240   0.75839   0.76421
 Alpha virt. eigenvalues --    0.77160   0.78419   0.78566   0.79836   0.80875
 Alpha virt. eigenvalues --    0.82116   0.82513   0.83059   0.84159   0.84477
 Alpha virt. eigenvalues --    0.85564   0.85869   0.86548   0.87016   0.87469
 Alpha virt. eigenvalues --    0.89066   0.89468   0.91216   0.93058   0.94102
 Alpha virt. eigenvalues --    0.95479   0.95934   0.97071   0.97386   0.98316
 Alpha virt. eigenvalues --    0.99224   0.99808   1.01263   1.02713   1.03748
 Alpha virt. eigenvalues --    1.05328   1.06081   1.06578   1.07451   1.09438
 Alpha virt. eigenvalues --    1.10390   1.11179   1.12794   1.13401   1.13758
 Alpha virt. eigenvalues --    1.16006   1.17637   1.18705   1.19045   1.19608
 Alpha virt. eigenvalues --    1.21261   1.21763   1.23406   1.24497   1.25181
 Alpha virt. eigenvalues --    1.25975   1.27209   1.27641   1.28849   1.29426
 Alpha virt. eigenvalues --    1.29625   1.30265   1.31990   1.32245   1.32675
 Alpha virt. eigenvalues --    1.33794   1.34452   1.35068   1.35917   1.37711
 Alpha virt. eigenvalues --    1.38395   1.39812   1.40382   1.41022   1.42722
 Alpha virt. eigenvalues --    1.43039   1.43746   1.44286   1.44974   1.45401
 Alpha virt. eigenvalues --    1.45975   1.46550   1.47944   1.48232   1.48333
 Alpha virt. eigenvalues --    1.49394   1.49824   1.50377   1.52058   1.53113
 Alpha virt. eigenvalues --    1.53969   1.55046   1.57186   1.58236   1.60813
 Alpha virt. eigenvalues --    1.61040   1.62062   1.62704   1.63724   1.65001
 Alpha virt. eigenvalues --    1.65127   1.65835   1.66320   1.67294   1.67938
 Alpha virt. eigenvalues --    1.69232   1.70014   1.70636   1.71656   1.72204
 Alpha virt. eigenvalues --    1.72651   1.73089   1.74551   1.75481   1.76494
 Alpha virt. eigenvalues --    1.77226   1.81019   1.82944   1.84646   1.84852
 Alpha virt. eigenvalues --    1.87461   1.88213   1.90837   1.92100   1.92988
 Alpha virt. eigenvalues --    1.93439   1.94279   1.94560   1.95591   1.97214
 Alpha virt. eigenvalues --    1.98408   1.99184   2.01022   2.01637   2.02306
 Alpha virt. eigenvalues --    2.04469   2.05876   2.06904   2.08045   2.08724
 Alpha virt. eigenvalues --    2.09029   2.10277   2.11319   2.13111   2.14673
 Alpha virt. eigenvalues --    2.15973   2.17058   2.19985   2.22689   2.27442
 Alpha virt. eigenvalues --    2.29369   2.29687   2.31998   2.35358   2.37007
 Alpha virt. eigenvalues --    2.38039   2.38269   2.38920   2.42862   2.46137
 Alpha virt. eigenvalues --    2.48251   2.50017   2.51620   2.56711   2.60034
 Alpha virt. eigenvalues --    2.64201   2.64672   2.70996   2.71809   2.72489
 Alpha virt. eigenvalues --    2.76469   2.86479   2.89359   2.90979   2.95387
 Alpha virt. eigenvalues --    3.02521   3.10253   3.18499   3.20152   3.20438
 Alpha virt. eigenvalues --    3.26553   3.28661   3.30179   3.31258   3.32104
 Alpha virt. eigenvalues --    3.33566   3.35728   3.36999   3.38151   3.39133
 Alpha virt. eigenvalues --    3.39694   3.41935   3.42606   3.44305   3.48821
 Alpha virt. eigenvalues --    3.49111   3.49819   3.51249   3.56129   3.56993
 Alpha virt. eigenvalues --    3.63687   3.75898   3.77836   3.84198   4.44559
 Alpha virt. eigenvalues --    4.45011   4.45986   4.48534   4.48810   4.49620
 Alpha virt. eigenvalues --    4.54003   4.54185   4.55967   4.59736   4.60655
 Alpha virt. eigenvalues --    4.62584   4.63517   4.69896   4.78000   4.79175
          Condensed to atoms (all electrons):
              1          2          3          4          5          6
     1  C   19.040825  -8.554250   4.583023  -7.020609   4.705585  -6.986128
     2  C   -8.554250  19.695669  -6.916835   5.148044  -8.015881   4.766576
     3  C    4.583023  -6.916835  16.568595  -8.850365   6.500741  -6.447117
     4  C   -7.020609   5.148044  -8.850365  20.691719 -10.466797   6.784155
     5  C    4.705585  -8.015881   6.500741 -10.466797  24.859037 -10.140673
     6  C   -6.986128   4.766576  -6.447117   6.784155 -10.140673  16.983138
     7  H   -3.078650   0.964979  -0.521621   0.182794  -0.032028   1.044240
     8  H    1.038760  -2.593920   1.195346  -0.052354   0.156124  -0.604360
     9  H    0.276995   0.079965   1.602877  -2.930248   1.123518  -1.028892
    10  H   -0.060028   0.339523  -0.854491   1.162535  -3.556488   2.088449
    11  O   -0.269339   0.479798  -1.131418   0.558701  -0.334765   0.273091
    12  S   -0.054222   0.080214  -0.108804   0.063234  -0.068664   0.055232
    13  O    0.019501  -0.020221   0.150018  -0.069581  -0.014873  -0.016516
    14  O   -0.016137  -0.062722   0.161048  -0.025910   0.019555  -0.024244
    15  C    0.013187  -0.060517   0.182246  -0.067195   0.005342  -0.003394
    16  F   -0.002767  -0.013859  -0.018111   0.030975   0.000949   0.001155
    17  F    0.002758   0.027788  -0.017352  -0.013591  -0.000363  -0.000919
    18  F   -0.001044   0.001986  -0.013674   0.004941  -0.000033   0.000132
    19  O    0.934211  -0.174767   0.227004  -0.254069   0.192059  -1.275542
    20  C   -0.055063   0.097095  -0.089573   0.136400  -0.342958   0.107174
    21  H    0.117618   0.078744  -0.006549   0.002032  -0.059073  -0.134819
    22  H   -0.310725  -0.068114   0.001386   0.014490   0.061915   0.432082
    23  H    0.119195   0.052313  -0.005231   0.007155  -0.042041  -0.142173
              7          8          9         10         11         12
     1  C   -3.078650   1.038760   0.276995  -0.060028  -0.269339  -0.054222
     2  C    0.964979  -2.593920   0.079965   0.339523   0.479798   0.080214
     3  C   -0.521621   1.195346   1.602877  -0.854491  -1.131418  -0.108804
     4  C    0.182794  -0.052354  -2.930248   1.162535   0.558701   0.063234
     5  C   -0.032028   0.156124   1.123518  -3.556488  -0.334765  -0.068664
     6  C    1.044240  -0.604360  -1.028892   2.088449   0.273091   0.055232
     7  H    4.277938  -0.311099   0.021435  -0.051933  -0.017996   0.001765
     8  H   -0.311099   3.138904  -0.029177   0.019953  -0.136052  -0.018386
     9  H    0.021435  -0.029177   3.145046  -0.253161  -0.148608  -0.019754
    10  H   -0.051933   0.019953  -0.253161   3.144152  -0.002038   0.005404
    11  O   -0.017996  -0.136052  -0.148608  -0.002038   9.747096  -0.086741
    12  S    0.001765  -0.018386  -0.019754   0.005404  -0.086741  14.457756
    13  O    0.000416   0.000801   0.010325  -0.000098   0.049121  -0.269643
    14  O   -0.000219   0.010036   0.001117   0.000631   0.041559  -0.269507
    15  C    0.000323  -0.006632  -0.005591   0.000127  -0.116855   0.117390
    16  F   -0.000158   0.000880   0.004135  -0.000234   0.004133  -0.050609
    17  F   -0.000018   0.003676   0.000248   0.000024   0.005686  -0.051424
    18  F   -0.000084   0.000828   0.000482  -0.000025   0.026397  -0.050707
    19  O   -0.176019   0.007126  -0.003843  -0.117268  -0.003212  -0.001772
    20  C    0.008218   0.007082  -0.002913   0.034151   0.003477   0.000338
    21  H   -0.089598   0.003045  -0.001500   0.010273   0.000725   0.000424
    22  H    0.048614  -0.002123   0.001167  -0.014353  -0.000024  -0.000051
    23  H   -0.084460   0.003505  -0.001563   0.010238   0.000844  -0.000335
             13         14         15         16         17         18
     1  C    0.019501  -0.016137   0.013187  -0.002767   0.002758  -0.001044
     2  C   -0.020221  -0.062722  -0.060517  -0.013859   0.027788   0.001986
     3  C    0.150018   0.161048   0.182246  -0.018111  -0.017352  -0.013674
     4  C   -0.069581  -0.025910  -0.067195   0.030975  -0.013591   0.004941
     5  C   -0.014873   0.019555   0.005342   0.000949  -0.000363  -0.000033
     6  C   -0.016516  -0.024244  -0.003394   0.001155  -0.000919   0.000132
     7  H    0.000416  -0.000219   0.000323  -0.000158  -0.000018  -0.000084
     8  H    0.000801   0.010036  -0.006632   0.000880   0.003676   0.000828
     9  H    0.010325   0.001117  -0.005591   0.004135   0.000248   0.000482
    10  H   -0.000098   0.000631   0.000127  -0.000234   0.000024  -0.000025
    11  O    0.049121   0.041559  -0.116855   0.004133   0.005686   0.026397
    12  S   -0.269643  -0.269507   0.117390  -0.050609  -0.051424  -0.050707
    13  O    8.927023   0.067224   0.027424   0.015113   0.010853   0.015692
    14  O    0.067224   8.934045   0.025981   0.010899   0.015827   0.015681
    15  C    0.027424   0.025981   4.624003   0.051931   0.051652   0.027437
    16  F    0.015113   0.010899   0.051931   9.464464  -0.026381  -0.049041
    17  F    0.010853   0.015827   0.051652  -0.026381   9.465124  -0.048826
    18  F    0.015692   0.015681   0.027437  -0.049041  -0.048826   9.463605
    19  O    0.000082   0.000142   0.000037   0.000001   0.000001   0.000000
    20  C    0.000201  -0.000439   0.000040   0.000001  -0.000011  -0.000002
    21  H   -0.000029  -0.000013  -0.000013   0.000005  -0.000004   0.000001
    22  H    0.000021  -0.000030   0.000002  -0.000001   0.000000   0.000000
    23  H    0.000031  -0.000064  -0.000001   0.000004  -0.000001   0.000002
             19         20         21         22         23
     1  C    0.934211  -0.055063   0.117618  -0.310725   0.119195
     2  C   -0.174767   0.097095   0.078744  -0.068114   0.052313
     3  C    0.227004  -0.089573  -0.006549   0.001386  -0.005231
     4  C   -0.254069   0.136400   0.002032   0.014490   0.007155
     5  C    0.192059  -0.342958  -0.059073   0.061915  -0.042041
     6  C   -1.275542   0.107174  -0.134819   0.432082  -0.142173
     7  H   -0.176019   0.008218  -0.089598   0.048614  -0.084460
     8  H    0.007126   0.007082   0.003045  -0.002123   0.003505
     9  H   -0.003843  -0.002913  -0.001500   0.001167  -0.001563
    10  H   -0.117268   0.034151   0.010273  -0.014353   0.010238
    11  O   -0.003212   0.003477   0.000725  -0.000024   0.000844
    12  S   -0.001772   0.000338   0.000424  -0.000051  -0.000335
    13  O    0.000082   0.000201  -0.000029   0.000021   0.000031
    14  O    0.000142  -0.000439  -0.000013  -0.000030  -0.000064
    15  C    0.000037   0.000040  -0.000013   0.000002  -0.000001
    16  F    0.000001   0.000001   0.000005  -0.000001   0.000004
    17  F    0.000001  -0.000011  -0.000004   0.000000  -0.000001
    18  F    0.000000  -0.000002   0.000001   0.000000   0.000002
    19  O    9.389214   0.153259   0.103137  -0.443893   0.110189
    20  C    0.153259   4.011834   0.253711   0.194071   0.260727
    21  H    0.103137   0.253711   1.601232  -0.551014  -0.144179
    22  H   -0.443893   0.194071  -0.551014   2.740106  -0.554712
    23  H    0.110189   0.260727  -0.144179  -0.554712   1.594780
 Mulliken atomic charges:
              1
     1  C    1.557305
     2  C    0.668392
     3  C   -0.191142
     4  C    0.963544
     5  C    1.449811
     6  C    0.269356
     7  H   -1.186838
     8  H   -0.831962
     9  H   -0.842061
    10  H   -0.905345
    11  O   -0.943581
    12  S    2.268860
    13  O   -0.902884
    14  O   -0.904460
    15  C    1.133075
    16  F   -0.423485
    17  F   -0.424745
    18  F   -0.393748
    19  O   -0.666077
    20  C    1.223179
    21  H   -0.184155
    22  H   -0.548815
    23  H   -0.184225
 Sum of Mulliken atomic charges =   0.00000
 Mulliken charges with hydrogens summed into heavy atoms:
              1
     1  C    0.370467
     2  C   -0.163570
     3  C   -0.191142
     4  C    0.121483
     5  C    0.544466
     6  C    0.269356
    11  O   -0.943581
    12  S    2.268860
    13  O   -0.902884
    14  O   -0.904460
    15  C    1.133075
    16  F   -0.423485
    17  F   -0.424745
    18  F   -0.393748
    19  O   -0.666077
    20  C    0.305984
 Sum of Mulliken charges with hydrogens summed into heavy atoms =   0.00000
 Electronic spatial extent (au):  <R**2>=           5185.3367
 Charge=              0.0000 electrons
 Dipole moment (field-independent basis, Debye):
    X=              3.8586    Y=             -1.3529    Z=             -2.2334  Tot=              4.6591
 Quadrupole moment (field-independent basis, Debye-Ang):
   XX=            -78.2177   YY=            -95.0348   ZZ=           -104.3262
   XY=             -8.5103   XZ=              3.8082   YZ=              0.2596
 Traceless Quadrupole moment (field-independent basis, Debye-Ang):
   XX=             14.3085   YY=             -2.5086   ZZ=            -11.7999
   XY=             -8.5103   XZ=              3.8082   YZ=              0.2596
 Octapole moment (field-independent basis, Debye-Ang**2):
  XXX=             27.3260  YYY=              2.7464  ZZZ=             -9.4035  XYY=             -1.6299
  XXY=            -48.0327  XXZ=             -4.6065  XZZ=            -22.4912  YZZ=             -2.6365
  YYZ=            -10.2635  XYZ=              0.5691
 Hexadecapole moment (field-independent basis, Debye-Ang**3):
 XXXX=          -4548.1995 YYYY=           -547.9684 ZZZZ=           -401.2986 XXXY=           -239.4395
 XXXZ=             68.0801 YYYX=              7.4298 YYYZ=              4.3323 ZZZX=             42.3154
 ZZZY=             -0.8478 XXYY=           -953.0139 XXZZ=           -970.5613 YYZZ=           -176.9952
 XXYZ=             -1.6320 YYXZ=             18.4970 ZZXY=             -2.0885
 N-N= 1.316306187157D+03 E-N=-5.715840773804D+03  KE= 1.301152848991D+03
 No NMR shielding tensors so no spin-rotation constants.
 Leave Link  601 at Wed Aug 21 22:47:15 2019, MaxMem=  524288000 cpu:       2.2
 (Enter /home/ubuntu/g09/l701.exe)
 Compute integral first derivatives.
 ... and contract with generalized density number  0.
 D1PCM: C-PCM CHGder 1st derivatives, ID1Alg=3 FixD1E=F DoIter=F DoCFld=F I1PDM=0.
 GePol: Maximum number of non-zero 1st derivatives   =     210
 Leave Link  701 at Wed Aug 21 22:47:19 2019, MaxMem=  524288000 cpu:      34.8
 (Enter /home/ubuntu/g09/l702.exe)
 L702 exits ... SP integral derivatives will be done elsewhere.
 Leave Link  702 at Wed Aug 21 22:47:20 2019, MaxMem=  524288000 cpu:       0.1
 (Enter /home/ubuntu/g09/l703.exe)
 Compute integral first derivatives, UseDBF=F ICtDFT=           0.
 Integral derivatives from FoFDir, PRISM(SPDF).
 Calling FoFJK, ICntrl=      2127 FMM=F ISym2X=0 I1Cent= 0 IOpClX= 0 NMat=1 NMatS=1 NMatT=0.
 FoFCou: FMM=F IPFlag=           0 FMFlag=      100000 FMFlg1=         800
         NFxFlg=           0 DoJE=F BraDBF=F KetDBF=F FulRan=T
         Omega=  0.000000  0.000000  1.000000  0.000000  0.000000 ICntrl=    2127 IOpCl=  0
         NMat0=    1 NMatS0=    1 NMatT0=    0 NMatD0=    1 NMtDS0=    0 NMtDT0=    0
         I1Cent=           0 NGrid=           0.
 Symmetry not used in FoFCou.
 Leave Link  703 at Wed Aug 21 22:48:52 2019, MaxMem=  524288000 cpu:     649.6
 (Enter /home/ubuntu/g09/l716.exe)
 Dipole        = 1.51807361D+00-5.32283105D-01-8.78691282D-01
 -------------------------------------------------------------------
 Center     Atomic                   Forces (Hartrees/Bohr)
 Number     Number              X              Y              Z
 -------------------------------------------------------------------
      1        6           0.000256163   -0.001212935    0.000062307
      2        6          -0.000233805   -0.000499355    0.000141204
      3        6           0.002888137    0.000464506    0.000337522
      4        6          -0.001198202    0.000702397    0.000095932
      5        6           0.000258695    0.000326785    0.000151768
      6        6           0.000832515    0.000396915    0.000059732
      7        1          -0.000148260    0.000063554   -0.000081445
      8        1           0.000545414   -0.000331787   -0.000354612
      9        1           0.000378941    0.000382620   -0.000321166
     10        1          -0.000470881    0.000411103   -0.000096981
     11        8          -0.002988565   -0.000206036    0.002383523
     12       16           0.000609624    0.000344802   -0.008796515
     13        8           0.000260144    0.001082155    0.003057960
     14        8           0.000309435   -0.001243580    0.002882663
     15        6          -0.003444654   -0.000055556   -0.001689040
     16        9           0.001040380   -0.000641873    0.001030320
     17        9           0.001000404    0.000671121    0.001154877
     18        9           0.000783276   -0.000006439    0.000097824
     19        8          -0.003236759    0.002433675   -0.000214731
     20        6           0.002743636   -0.003794580    0.000032606
     21        1          -0.000072461    0.000458328    0.000568522
     22        1          -0.000172194   -0.000207817   -0.000033026
     23        1           0.000059015    0.000461996   -0.000469243
 -------------------------------------------------------------------
 Cartesian Forces:  Max     0.008796515 RMS     0.001650904
 Leave Link  716 at Wed Aug 21 22:48:52 2019, MaxMem=  524288000 cpu:       0.1
 (Enter /home/ubuntu/g09/l103.exe)

 GradGradGradGradGradGradGradGradGradGradGradGradGradGradGradGradGradGrad
 Berny optimization.
 Search for a local minimum.
 Step number   1 out of a maximum of  138
 All quantities printed in internal units (Hartrees-Bohrs-Radians)
 Second derivative matrix not updated -- first step.
 ITU=  0
     Eigenvalues ---    0.00047   0.00079   0.00089   0.00194   0.00229
     Eigenvalues ---    0.00462   0.00495   0.00889   0.01293   0.01613
     Eigenvalues ---    0.02452   0.02851   0.03472   0.03927   0.04153
     Eigenvalues ---    0.04473   0.04977   0.06697   0.06832   0.07165
     Eigenvalues ---    0.08069   0.08876   0.08940   0.09619   0.11737
     Eigenvalues ---    0.12257   0.12400   0.13091   0.14032   0.14369
     Eigenvalues ---    0.14435   0.15844   0.16650   0.16969   0.18287
     Eigenvalues ---    0.20817   0.22744   0.29881   0.30732   0.31191
     Eigenvalues ---    0.38145   0.39794   0.44737   0.47490   0.52594
     Eigenvalues ---    0.67715   0.70347   0.79828   0.88018   0.91232
     Eigenvalues ---    0.95774   1.03352   1.12363   1.16737   1.27006
     Eigenvalues ---    1.42445   1.46843   1.47787   1.50181   1.55646
     Eigenvalues ---    1.60630   1.68832   2.27259
 RFO step:  Lambda=-2.84901147D-04 EMin= 4.68056379D-04
 Linear search not attempted -- first point.
 TrRot= -0.001840  0.000425  0.000907  1.786474  0.000438 -1.786461
 Variable       Old X    -DE/DX   Delta X   Delta X   Delta X     New X
                                 (Linear)    (Quad)   (Total)
    X1        5.38827   0.00026   0.00000   0.00925   0.00747   5.39575
    Y1       -1.86166  -0.00121   0.00000  -0.00021   0.00009  -1.86157
    Z1       -0.44745   0.00006   0.00000  -0.00078   0.00143  -0.44602
    X2        2.76527  -0.00023   0.00000   0.01010   0.00836   2.77363
    Y2       -1.96900  -0.00050   0.00000  -0.00181  -0.00168  -1.97068
    Z2       -0.76676   0.00014   0.00000  -0.00324  -0.00123  -0.76798
    X3        1.37820   0.00289   0.00000   0.00737   0.00560   1.38380
    Y3        0.26042   0.00046   0.00000  -0.00079  -0.00070   0.25973
    Z3       -0.81351   0.00034   0.00000   0.00334   0.00427  -0.80924
    X4        2.53966  -0.00120   0.00000   0.00169  -0.00013   2.53953
    Y4        2.61514   0.00070   0.00000   0.00330   0.00353   2.61866
    Z4       -0.54110   0.00010   0.00000   0.00040   0.00043  -0.54068
    X5        5.14593   0.00026   0.00000   0.00174  -0.00012   5.14582
    Y5        2.72328   0.00033   0.00000   0.00445   0.00484   2.72813
    Z5       -0.22556   0.00015   0.00000   0.00368   0.00390  -0.22166
    X6        6.58394   0.00083   0.00000   0.00437   0.00254   6.58648
    Y6        0.48921   0.00040   0.00000   0.00312   0.00356   0.49277
    Z6       -0.17495   0.00006   0.00000   0.00442   0.00574  -0.16921
    X7        6.45908  -0.00015   0.00000   0.01098   0.00922   6.46831
    Y7       -3.61382   0.00006   0.00000   0.00119   0.00151  -3.61230
    Z7       -0.41744  -0.00008   0.00000  -0.00685  -0.00379  -0.42123
    X8        1.80762   0.00055   0.00000   0.01970   0.01800   1.82562
    Y8       -3.77666  -0.00033   0.00000  -0.00545  -0.00543  -3.78209
    Z8       -0.98084  -0.00035   0.00000  -0.01751  -0.01481  -0.99565
    X9        1.40501   0.00038   0.00000   0.00542   0.00358   1.40859
    Y9        4.33025   0.00038   0.00000   0.00589   0.00608   4.33633
    Z9       -0.58190  -0.00032   0.00000  -0.01080  -0.01161  -0.59352
   X10        6.11073  -0.00047   0.00000  -0.00588  -0.00778   6.10295
   Y10        4.52843   0.00041   0.00000   0.00930   0.00980   4.53823
   Z10       -0.01347  -0.00010   0.00000   0.00056   0.00009  -0.01338
   X11       -1.25158  -0.00299   0.00000   0.00220   0.00048  -1.25111
   Y11        0.15407  -0.00021   0.00000  -0.00324  -0.00338   0.15069
   Z11       -1.28838   0.00238   0.00000   0.00187   0.00260  -1.28578
   X12       -3.12056   0.00061   0.00000  -0.00866  -0.01062  -3.13118
   Y12       -0.09439   0.00034   0.00000   0.00348   0.00439  -0.09000
   Z12        1.24824  -0.00880   0.00000  -0.01235  -0.01170   1.23654
   X13       -3.06686   0.00026   0.00000  -0.00829  -0.01042  -3.07727
   Y13        2.25359   0.00108   0.00000  -0.00274  -0.00118   2.25242
   Z13        2.74460   0.00306   0.00000   0.00293   0.00259   2.74719
   X14       -2.82520   0.00031   0.00000  -0.01113  -0.01317  -2.83837
   Y14       -2.59233  -0.00124   0.00000   0.01422   0.01566  -2.57666
   Z14        2.44410   0.00288   0.00000   0.01715   0.01889   2.46299
   X15       -6.14244  -0.00344   0.00000  -0.01529  -0.01706  -6.15950
   Y15       -0.12487  -0.00006   0.00000  -0.00133  -0.00129  -0.12616
   Z15       -0.70466  -0.00169   0.00000  -0.00384  -0.00346  -0.70812
   X16       -6.34799   0.00104   0.00000  -0.00802  -0.00970  -6.35768
   Y16        2.01562  -0.00064   0.00000   0.00091   0.00039   2.01601
   Z16       -2.01709   0.00103   0.00000   0.00249   0.00193  -2.01516
   X17       -6.14276   0.00100   0.00000  -0.00028  -0.00188  -6.14464
   Y17       -2.09858   0.00067   0.00000  -0.00211  -0.00274  -2.10131
   Z17       -2.27058   0.00115   0.00000   0.00054   0.00177  -2.26881
   X18       -8.07214   0.00078   0.00000  -0.00733  -0.00925  -8.08138
   Y18       -0.32089  -0.00001   0.00000  -0.00606  -0.00534  -0.32624
   Z18        0.91283   0.00010   0.00000   0.00363   0.00392   0.91675
   X19        9.12074  -0.00324   0.00000   0.00317   0.00130   9.12205
   Y19        0.80580   0.00243   0.00000   0.00001   0.00061   0.80641
   Z19        0.14179  -0.00021   0.00000   0.00526   0.00668   0.14847
   X20       10.68272   0.00274   0.00000   0.00899   0.00714  10.68986
   Y20       -1.38679  -0.00379   0.00000  -0.00791  -0.00725  -1.39404
   Z20        0.22480   0.00003   0.00000  -0.00292  -0.00041   0.22439
   X21       10.57525  -0.00007   0.00000   0.00492   0.00326  10.57850
   Y21       -2.45434   0.00046   0.00000   0.00070   0.00059  -2.45375
   Z21       -1.55713   0.00057   0.00000  -0.00532  -0.00237  -1.55951
   X22       12.61026  -0.00017   0.00000   0.00988   0.00800  12.61825
   Y22       -0.69051  -0.00021   0.00000  -0.01294  -0.01214  -0.70264
   Z22        0.49596  -0.00003   0.00000  -0.00156   0.00083   0.49678
   X23       10.16068   0.00006   0.00000   0.00713   0.00516  10.16583
   Y23       -2.62150   0.00046   0.00000  -0.01129  -0.00996  -2.63146
   Z23        1.81497  -0.00047   0.00000  -0.00867  -0.00568   1.80929
         Item               Value     Threshold  Converged?
 Maximum Force            0.008797     0.000015     NO 
 RMS     Force            0.001651     0.000010     NO 
 Maximum Displacement     0.018893     0.000060     NO 
 RMS     Displacement     0.007187     0.000040     NO 
 Predicted change in Energy=-1.428688D-04
 GradGradGradGradGradGradGradGradGradGradGradGradGradGradGradGradGradGrad

 Leave Link  103 at Wed Aug 21 22:48:52 2019, MaxMem=  524288000 cpu:       0.2
 (Enter /home/ubuntu/g09/l202.exe)
                          Input orientation:                          
 ---------------------------------------------------------------------
 Center     Atomic      Atomic             Coordinates (Angstroms)
 Number     Number       Type             X           Y           Z
 ---------------------------------------------------------------------
      1          6           0        2.855306   -0.985101   -0.236024
      2          6           0        1.467743   -1.042840   -0.406400
      3          6           0        0.732275    0.137441   -0.428232
      4          6           0        1.343861    1.385737   -0.286114
      5          6           0        2.723048    1.443663   -0.117295
      6          6           0        3.485416    0.260764   -0.089543
      7          1           0        3.422881   -1.911549   -0.222906
      8          1           0        0.966075   -2.001394   -0.526877
      9          1           0        0.745392    2.294689   -0.314075
     10          1           0        3.229545    2.401527   -0.007080
     11          8           0       -0.662057    0.079742   -0.680405
     12         16           0       -1.656948   -0.047625    0.654348
     13          8           0       -1.628423    1.191927    1.453748
     14          8           0       -1.501998   -1.363510    1.303358
     15          6           0       -3.259468   -0.066761   -0.374721
     16          9           0       -3.364341    1.066828   -1.066376
     17          9           0       -3.251604   -1.111968   -1.200603
     18          9           0       -4.276484   -0.172638    0.485125
     19          8           0        4.827179    0.426733    0.078565
     20          6           0        5.656829   -0.737695    0.118742
     21          1           0        5.597904   -1.298469   -0.825256
     22          1           0        6.677293   -0.371823    0.262887
     23          1           0        5.379528   -1.392509    0.957434
 ---------------------------------------------------------------------
                    Distance matrix (angstroms):
                    1          2          3          4          5
     1  C    0.000000
     2  C    1.399175   0.000000
     3  C    2.409213   1.390847   0.000000
     4  C    2.812089   2.434707   1.397311   0.000000
     5  C    2.435258   2.800370   2.401266   1.390688   0.000000
     6  C    1.403807   2.422970   2.776635   2.427027   1.407560
     7  H    1.086563   2.147298   3.388197   3.898514   3.429048
     8  H    2.164865   1.088583   2.153836   3.416628   3.888847
     9  H    3.900621   3.416052   2.160306   1.088641   2.161965
    10  H    3.414925   3.889352   3.397029   2.159975   1.089123
    11  O    3.701784   2.423081   1.418126   2.425859   3.692738
    12  S    4.693832   3.446641   2.629565   3.455987   4.690814
    13  O    5.262946   4.247421   3.197919   3.449515   4.633233
    14  O    4.636700   3.441725   3.200505   4.264234   5.267779
    15  C    6.184904   4.827034   3.997321   4.827861   6.175609
    16  F    6.601811   5.313691   4.248912   4.783061   6.172444
    17  F    6.183919   4.786207   4.246041   5.309719   6.587965
    18  F    7.214054   5.877773   5.100787   5.883164   7.208938
    19  O    2.445511   3.698735   4.136275   3.631279   2.345181
    20  C    2.834714   4.232887   5.031529   4.824373   3.663483
    21  H    2.822630   4.159208   5.088596   5.058904   4.035504
    22  H    3.902897   5.295055   6.006683   5.642332   4.367674
    23  H    2.821706   4.157448   5.085055   5.054866   4.031848
                    6          7          8          9         10
     6  C    0.000000
     7  H    2.177301   0.000000
     8  H    3.414044   2.477169   0.000000
     9  H    3.419794   4.986952   4.307007   0.000000
    10  H    2.157576   4.322798   4.977870   2.505329   0.000000
    11  O    4.193258   4.567413   2.646793   2.649735   4.581333
    12  S    5.205034   5.481647   3.477464   3.492207   5.505782
    13  O    5.422191   6.161039   4.566355   3.158524   5.215074
    14  O    5.427038   5.185004   3.138159   4.587948   6.187103
    15  C    6.758850   6.933980   4.649857   4.649626   6.952330
    16  F    6.965853   7.459796   5.334562   4.354711   6.810496
    17  F    6.964645   6.792935   4.362775   5.326088   7.468228
    18  F    7.795201   7.924982   5.643839   5.652049   7.950412
    19  O    1.362400   2.744176   4.601140   4.506041   2.541570
    20  C    2.399029   2.546602   4.900708   5.788342   3.970171
    21  H    2.726735   2.338679   4.694355   6.059617   4.468613
    22  H    3.272988   3.632897   5.991430   6.529213   4.432981
    23  H    2.723442   2.343304   4.696008   6.057011   4.466254
                   11         12         13         14         15
    11  O    0.000000
    12  S    1.669609   0.000000
    13  O    2.593343   1.475244   0.000000
    14  O    2.593028   1.475391   2.562979   0.000000
    15  C    2.619437   1.904579   2.754615   2.754307   0.000000
    16  F    2.902697   2.667974   3.062693   3.871757   1.332070
    17  F    2.897677   2.667695   3.871463   3.064998   1.332141
    18  F    3.806079   2.627971   3.132490   3.128171   1.335989
    19  O    5.552310   6.526902   6.644655   6.690559   8.114362
    20  C    6.421461   7.365759   7.653796   7.283116   8.955111
    21  H    6.411517   7.509109   7.975947   7.412411   8.953944
    22  H    7.413485   8.349725   8.535126   8.304627   9.961868
    23  H    6.430458   7.170256   7.485787   6.890276   8.841069
                   16         17         18         19         20
    16  F    0.000000
    17  F    2.185836   0.000000
    18  F    2.185277   2.185039   0.000000
    19  O    8.295879   8.322896   9.132426   0.000000
    20  C    9.275901   9.013376   9.956116   1.430324   0.000000
    21  H    9.272249   8.859428  10.024377   2.094572   1.099578
    22  H   10.230888  10.063429  10.957841   2.023509   1.093611
    23  H    9.305880   8.901251   9.744215   2.094551   1.099583
                   21         22         23
    21  H    0.000000
    22  H    1.791035   0.000000
    23  H    1.798477   1.791197   0.000000
 Symmetry turned off by external request.
 Stoichiometry    C8H7F3O4S
 Framework group  C1[X(C8H7F3O4S)]
 Deg. of freedom    63
 Full point group                 C1      NOp   1
 Rotational constants (GHZ):      1.4449466      0.2040011      0.1993020
 Leave Link  202 at Wed Aug 21 22:48:52 2019, MaxMem=  524288000 cpu:       0.0
 (Enter /home/ubuntu/g09/l301.exe)
 Standard basis: Aug-CC-pVDZ (5D, 7F)
 Ernie: Thresh=  0.10000D-02 Tol=  0.10000D-05 Strict=F.
 Ernie:  40 primitive shells out of 477 were deleted.
 Integral buffers will be    131072 words long.
 Raffenetti 2 integral format.
 Two-electron integral symmetry is turned off.
   435 basis functions,   803 primitive gaussians,   467 cartesian basis functions
    65 alpha electrons       65 beta electrons
       nuclear repulsion energy      1315.5498678907 Hartrees.
 IExCor=  402 DFT=T Ex+Corr=B3LYP ExCW=0 ScaHFX=  0.200000
 ScaDFX=  0.800000  0.720000  1.000000  0.810000 ScalE2=  1.000000  1.000000
 IRadAn=      5 IRanWt=     -1 IRanGd=            0 ICorTp=0
 NAtoms=   23 NActive=   23 NUniq=   23 SFac= 1.00D+00 NAtFMM=   50 NAOKFM=F Big=F
 ------------------------------------------------------------------------------
 Polarizable Continuum Model (PCM)
 =================================
 Model                : C-PCM.
 Atomic radii         : UFF (Universal Force Field).
 Polarization charges : Total charges.
 Charge compensation  : None.
 Solution method      : Matrix inversion.
 Cavity type          : Scaled VdW (van der Waals Surface) (Alpha=1.100).
 Cavity algorithm     : GePol (No added spheres)
                        Default sphere list used, NSphG=   23.
                        Lebedev-Laikov grids with approx.  5.0 points / Ang**2.
                        Smoothing algorithm: Karplus/York (Gamma=1.0000).
                        Polarization charges: spherical gaussians, with
                                              point-specific exponents (IZeta= 3).
                        Self-potential: point-specific (ISelfS= 7).
                        Self-field    : sphere-specific E.n sum rule (ISelfD= 2).
 1st derivatives      : Analytical E(r).r(x)/FMM algorithm (CHGder, D1EAlg=3).
                        Cavity 1st derivative terms included.
 Solvent              : Water, Eps=  78.355300 Eps(inf)=   1.777849
 ------------------------------------------------------------------------------
 GePol: Number of generator spheres                  =      23
 GePol: Total number of spheres                      =      23
 GePol: Number of exposed spheres                    =      23 (100.00%)
 GePol: Number of points                             =    2163
 GePol: Average weight of points                     =       0.13
 GePol: Minimum weight of points                     =   0.10D-10
 GePol: Maximum weight of points                     =    0.20577
 GePol: Number of points with low weight             =      91
 GePol: Fraction of low-weight points (<1% of avg)   =       4.21%
 GePol: Cavity surface area                          =    279.997 Ang**2
 GePol: Cavity volume                                =    285.992 Ang**3
 Leave Link  301 at Wed Aug 21 22:48:52 2019, MaxMem=  524288000 cpu:       0.4
 (Enter /home/ubuntu/g09/l302.exe)
 NPDir=0 NMtPBC=     1 NCelOv=     1 NCel=       1 NClECP=     1 NCelD=      1
         NCelK=      1 NCelE2=     1 NClLst=     1 CellRange=     0.0.
 One-electron integrals computed using PRISM.
 NBasis=   435 RedAO= T  NBF=   435
 NBsUse=   435 1.00D-06 NBFU=   435
 Precomputing XC quadrature grid using
 IXCGrd= 2 IRadAn=           5 IRanWt=          -1 IRanGd=           0 AccXCQ= 0.00D+00.
 NRdTot=    1988 NPtTot=      536998 NUsed=      551226 NTot=      551258
 NSgBfM=   464   464   464   464   464 NAtAll=    23    23.
 Leave Link  302 at Wed Aug 21 22:48:53 2019, MaxMem=  524288000 cpu:       4.9
 (Enter /home/ubuntu/g09/l303.exe)
 DipDrv:  MaxL=1.
 Leave Link  303 at Wed Aug 21 22:48:53 2019, MaxMem=  524288000 cpu:       0.6
 (Enter /home/ubuntu/g09/l401.exe)
 Initial guess read from the read-write file.
 B after Tr=     0.000000    0.000000    0.000000
         Rot=    1.000000    0.000000    0.000000    0.000000 Ang=   0.00 deg.
 Guess basis will be translated and rotated to current coordinates.
 Leave Link  401 at Wed Aug 21 22:48:54 2019, MaxMem=  524288000 cpu:       5.4
 (Enter /home/ubuntu/g09/l502.exe)
 Closed shell SCF:
 Requested convergence on RMS density matrix=1.00D-08 within 700 cycles.
 Requested convergence on MAX density matrix=1.00D-06.
 Requested convergence on             energy=1.00D-06.
 No special actions if energy rises.
 Using DIIS extrapolation, IDIIS=  1040.
 Two-electron integral symmetry not used.
       551006 words used for storage of precomputed grid.
 IEnd=     1706012 IEndB=     1706012 NGot=   524288000 MDV=   523291945
 LenX=   523291945 LenY=   523073389
 Fock matrices will be formed incrementally for  20 cycles.

 Cycle   1  Pass 1  IDiag  1:
 FoFCou: FMM=F IPFlag=           0 FMFlag=      100000 FMFlg1=           0
         NFxFlg=           0 DoJE=F BraDBF=F KetDBF=F FulRan=T
         Omega=  0.000000  0.000000  1.000000  0.000000  0.000000 ICntrl=       0 IOpCl=  0
         NMat0=    1 NMatS0=    1 NMatT0=    0 NMatD0=    1 NMtDS0=    0 NMtDT0=    0
         I1Cent=           0 NGrid=           0.
 Symmetry not used in FoFCou.
 E= -1307.71427101437    
 DIIS: error= 4.73D-04 at cycle   1 NSaved=   1.
 NSaved= 1 IEnMin= 1 EnMin= -1307.71427101437     IErMin= 1 ErrMin= 4.73D-04
 ErrMax= 4.73D-04 EMaxC= 1.00D-01 BMatC= 3.66D-04 BMatP= 3.66D-04
 IDIUse=3 WtCom= 9.95D-01 WtEn= 4.73D-03
 Coeff-Com:  0.100D+01
 Coeff-En:   0.100D+01
 Coeff:      0.100D+01
 Gap=     0.204 Goal=   None    Shift=    0.000
 RMSDP=5.56D-04 MaxDP=2.59D-02              OVMax= 3.75D-03

 Cycle   2  Pass 1  IDiag  1:
 RMSU=  3.89D-04    CP:  1.00D+00
 E= -1307.71461504252     Delta-E=       -0.000344028152 Rises=F Damp=F
 DIIS: error= 6.02D-05 at cycle   2 NSaved=   2.
 NSaved= 2 IEnMin= 2 EnMin= -1307.71461504252     IErMin= 2 ErrMin= 6.02D-05
 ErrMax= 6.02D-05 EMaxC= 1.00D-01 BMatC= 7.13D-06 BMatP= 3.66D-04
 IDIUse=1 WtCom= 1.00D+00 WtEn= 0.00D+00
 Coeff-Com: -0.719D-02 0.101D+01
 Coeff:     -0.719D-02 0.101D+01
 Gap=     0.197 Goal=   None    Shift=    0.000
 RMSDP=5.96D-05 MaxDP=2.59D-03 DE=-3.44D-04 OVMax= 1.30D-03

 Cycle   3  Pass 1  IDiag  1:
 RMSU=  4.09D-05    CP:  1.00D+00  1.02D+00
 E= -1307.71461167156     Delta-E=        0.000003370967 Rises=F Damp=F
 DIIS: error= 7.72D-05 at cycle   3 NSaved=   3.
 NSaved= 3 IEnMin= 2 EnMin= -1307.71461504252     IErMin= 2 ErrMin= 6.02D-05
 ErrMax= 7.72D-05 EMaxC= 1.00D-01 BMatC= 1.30D-05 BMatP= 7.13D-06
 IDIUse=1 WtCom= 1.00D+00 WtEn= 0.00D+00
 Coeff-Com: -0.191D-01 0.598D+00 0.421D+00
 Coeff:     -0.191D-01 0.598D+00 0.421D+00
 Gap=     0.197 Goal=   None    Shift=    0.000
 RMSDP=2.91D-05 MaxDP=1.22D-03 DE= 3.37D-06 OVMax= 7.95D-04

 Cycle   4  Pass 1  IDiag  1:
 RMSU=  1.21D-05    CP:  1.00D+00  1.02D+00  5.93D-01
 E= -1307.71462159980     Delta-E=       -0.000009928241 Rises=F Damp=F
 DIIS: error= 1.76D-05 at cycle   4 NSaved=   4.
 NSaved= 4 IEnMin= 4 EnMin= -1307.71462159980     IErMin= 4 ErrMin= 1.76D-05
 ErrMax= 1.76D-05 EMaxC= 1.00D-01 BMatC= 8.00D-07 BMatP= 7.13D-06
 IDIUse=1 WtCom= 1.00D+00 WtEn= 0.00D+00
 Coeff-Com: -0.773D-02 0.188D+00 0.227D+00 0.592D+00
 Coeff:     -0.773D-02 0.188D+00 0.227D+00 0.592D+00
 Gap=     0.197 Goal=   None    Shift=    0.000
 RMSDP=6.82D-06 MaxDP=3.82D-04 DE=-9.93D-06 OVMax= 1.87D-04

 Cycle   5  Pass 1  IDiag  1:
 RMSU=  4.33D-06    CP:  1.00D+00  1.02D+00  5.73D-01  8.46D-01
 E= -1307.71462211483     Delta-E=       -0.000000515035 Rises=F Damp=F
 DIIS: error= 7.51D-06 at cycle   5 NSaved=   5.
 NSaved= 5 IEnMin= 5 EnMin= -1307.71462211483     IErMin= 5 ErrMin= 7.51D-06
 ErrMax= 7.51D-06 EMaxC= 1.00D-01 BMatC= 1.21D-07 BMatP= 8.00D-07
 IDIUse=1 WtCom= 1.00D+00 WtEn= 0.00D+00
 Coeff-Com: -0.264D-02 0.514D-01 0.914D-01 0.347D+00 0.513D+00
 Coeff:     -0.264D-02 0.514D-01 0.914D-01 0.347D+00 0.513D+00
 Gap=     0.197 Goal=   None    Shift=    0.000
 RMSDP=3.82D-06 MaxDP=2.09D-04 DE=-5.15D-07 OVMax= 9.17D-05

 Cycle   6  Pass 1  IDiag  1:
 RMSU=  1.47D-06    CP:  1.00D+00  1.02D+00  6.03D-01  8.25D-01  7.63D-01
 E= -1307.71462220769     Delta-E=       -0.000000092862 Rises=F Damp=F
 DIIS: error= 2.87D-06 at cycle   6 NSaved=   6.
 NSaved= 6 IEnMin= 6 EnMin= -1307.71462220769     IErMin= 6 ErrMin= 2.87D-06
 ErrMax= 2.87D-06 EMaxC= 1.00D-01 BMatC= 1.20D-08 BMatP= 1.21D-07
 IDIUse=1 WtCom= 1.00D+00 WtEn= 0.00D+00
 Coeff-Com: -0.530D-03 0.308D-02 0.227D-01 0.125D+00 0.294D+00 0.556D+00
 Coeff:     -0.530D-03 0.308D-02 0.227D-01 0.125D+00 0.294D+00 0.556D+00
 Gap=     0.197 Goal=   None    Shift=    0.000
 RMSDP=9.38D-07 MaxDP=4.42D-05 DE=-9.29D-08 OVMax= 4.16D-05

 Cycle   7  Pass 1  IDiag  1:
 RMSU=  5.54D-07    CP:  1.00D+00  1.02D+00  6.05D-01  8.28D-01  8.01D-01
                    CP:  8.24D-01
 E= -1307.71462221634     Delta-E=       -0.000000008646 Rises=F Damp=F
 DIIS: error= 1.20D-06 at cycle   7 NSaved=   7.
 NSaved= 7 IEnMin= 7 EnMin= -1307.71462221634     IErMin= 7 ErrMin= 1.20D-06
 ErrMax= 1.20D-06 EMaxC= 1.00D-01 BMatC= 1.48D-09 BMatP= 1.20D-08
 IDIUse=1 WtCom= 1.00D+00 WtEn= 0.00D+00
 Coeff-Com:  0.516D-04-0.629D-02 0.321D-04 0.256D-01 0.105D+00 0.326D+00
 Coeff-Com:  0.549D+00
 Coeff:      0.516D-04-0.629D-02 0.321D-04 0.256D-01 0.105D+00 0.326D+00
 Coeff:      0.549D+00
 Gap=     0.197 Goal=   None    Shift=    0.000
 RMSDP=3.13D-07 MaxDP=1.48D-05 DE=-8.65D-09 OVMax= 1.38D-05

 Cycle   8  Pass 1  IDiag  1:
 RMSU=  1.51D-07    CP:  1.00D+00  1.02D+00  6.03D-01  8.33D-01  8.09D-01
                    CP:  8.53D-01  7.65D-01
 E= -1307.71462221767     Delta-E=       -0.000000001325 Rises=F Damp=F
 DIIS: error= 2.01D-07 at cycle   8 NSaved=   8.
 NSaved= 8 IEnMin= 8 EnMin= -1307.71462221767     IErMin= 8 ErrMin= 2.01D-07
 ErrMax= 2.01D-07 EMaxC= 1.00D-01 BMatC= 6.01D-11 BMatP= 1.48D-09
 IDIUse=1 WtCom= 1.00D+00 WtEn= 0.00D+00
 Coeff-Com:  0.444D-04-0.344D-02-0.100D-02 0.800D-02 0.418D-01 0.145D+00
 Coeff-Com:  0.284D+00 0.526D+00
 Coeff:      0.444D-04-0.344D-02-0.100D-02 0.800D-02 0.418D-01 0.145D+00
 Coeff:      0.284D+00 0.526D+00
 Gap=     0.197 Goal=   None    Shift=    0.000
 RMSDP=8.04D-08 MaxDP=4.69D-06 DE=-1.33D-09 OVMax= 2.21D-06

 Cycle   9  Pass 1  IDiag  1:
 RMSU=  4.31D-08    CP:  1.00D+00  1.02D+00  6.03D-01  8.33D-01  8.12D-01
                    CP:  8.50D-01  7.58D-01  7.91D-01
 E= -1307.71462221769     Delta-E=       -0.000000000022 Rises=F Damp=F
 DIIS: error= 4.95D-08 at cycle   9 NSaved=   9.
 NSaved= 9 IEnMin= 9 EnMin= -1307.71462221769     IErMin= 9 ErrMin= 4.95D-08
 ErrMax= 4.95D-08 EMaxC= 1.00D-01 BMatC= 5.08D-12 BMatP= 6.01D-11
 IDIUse=1 WtCom= 1.00D+00 WtEn= 0.00D+00
 Coeff-Com:  0.167D-04-0.836D-03-0.472D-03 0.769D-03 0.655D-02 0.270D-01
 Coeff-Com:  0.651D-01 0.250D+00 0.652D+00
 Coeff:      0.167D-04-0.836D-03-0.472D-03 0.769D-03 0.655D-02 0.270D-01
 Coeff:      0.651D-01 0.250D+00 0.652D+00
 Gap=     0.197 Goal=   None    Shift=    0.000
 RMSDP=1.93D-08 MaxDP=1.16D-06 DE=-2.18D-11 OVMax= 6.23D-07

 Cycle  10  Pass 1  IDiag  1:
 RMSU=  1.14D-08    CP:  1.00D+00  1.02D+00  6.03D-01  8.33D-01  8.12D-01
                    CP:  8.52D-01  7.61D-01  8.20D-01  9.54D-01
 E= -1307.71462221766     Delta-E=        0.000000000025 Rises=F Damp=F
 DIIS: error= 3.29D-08 at cycle  10 NSaved=  10.
 NSaved=10 IEnMin= 9 EnMin= -1307.71462221769     IErMin=10 ErrMin= 3.29D-08
 ErrMax= 3.29D-08 EMaxC= 1.00D-01 BMatC= 1.09D-12 BMatP= 5.08D-12
 IDIUse=1 WtCom= 1.00D+00 WtEn= 0.00D+00
 Coeff-Com:  0.561D-05-0.167D-03-0.185D-03-0.241D-03 0.356D-04 0.236D-02
 Coeff-Com:  0.119D-01 0.983D-01 0.388D+00 0.500D+00
 Coeff:      0.561D-05-0.167D-03-0.185D-03-0.241D-03 0.356D-04 0.236D-02
[...]
 00505310,-0.00000856,-0.00098582,-0.00077824,0.00046222,0.00017517,-0.
 00023191,0.00014137,-0.00007135,0.00108255,0.00048327,0.00023702,-0.00
 013197,0.00000918,-0.00003732,0.00006115,0.00035899,0.00027215,0.00014
 674,0.00021087,-0.00002427,-0.00013997,-0.00002657,-0.00004544,0.00182
 583,-0.00032730,0.00464688,0.06845846,-0.38603110,0.19551836,0.0064071
 2,-0.02229967,0.01746968,-0.07488192,0.41001398,0.00129283,0.00054355,
 0.00015998,-0.00000622,0.00061365,0.00018245,-0.00739192,0.00044304,0.
 00021767,0.00158672,-0.00093426,-0.00025237,0.00047726,0.00004338,0.00
 034190,-0.00165104,-0.00069947,-0.00023663,0.00020651,-0.00003189,-0.0
 0000505,0.00001408,0.00019439,-0.00014126,-0.00010710,-0.00008120,-0.0
 0013460,0.00023837,0.00005027,0.00005160,0.00294622,0.02032332,-0.0109
 1074,-0.04824032,0.19733735,-0.18544230,0.00413988,-0.01566678,0.01236
 382,0.04304123,-0.21704357,0.18365089,0.00078450,0.00011834,0.00008408
 ,0.00085707,0.00075106,0.00027950,-0.00629020,-0.00037856,-0.00099358,
 0.00080992,-0.00064364,0.00025807,0.00076882,-0.00012982,0.00001920,-0
 .00161422,-0.00020893,-0.00018912,0.00024229,-0.00003105,0.00001049,-0
 .00015064,0.00014413,0.00005968,-0.00015160,-0.00018026,0.00004486,0.0
 0023414,0.00006881,0.00001261,0.00812621,0.00071159,-0.00758478,-0.118
 41563,-0.01292696,-0.05477818,0.01637249,0.02063657,0.01818574,0.01777
 641,-0.01378796,0.01545377,0.43210726,0.00025888,0.00009990,-0.0000504
 3,-0.00007942,0.00007771,0.00013448,-0.00079443,0.00027307,0.00005611,
 0.00028297,-0.00020736,-0.00005766,-0.00002058,0.00006855,0.00005960,-
 0.00022988,-0.00018491,-0.00004585,0.00003280,-0.00000258,-0.00000177,
 -0.00002980,0.00001590,0.00003068,-0.00001526,-0.00001176,0.00000529,0
 .00004169,0.00000649,0.00000234,0.00140295,0.00170053,-0.00150486,-0.0
 1260386,-0.02956530,-0.00724000,-0.00874296,-0.00582510,-0.01116384,0.
 01471499,-0.00692346,0.01556748,-0.00802284,0.49041739,0.00092641,0.00
 013940,0.00055841,0.00057374,0.00145350,-0.00016924,-0.00322173,0.0011
 5774,-0.00653923,0.00096987,-0.00133392,-0.00041764,0.00086818,-0.0001
 0838,0.00052789,-0.00177318,-0.00025358,-0.00030547,0.00023896,-0.0000
 2573,0.00012222,-0.00010315,0.00004731,-0.00023228,-0.00010640,-0.0000
 3476,-0.00020948,0.00024230,0.00003133,0.00012509,0.03102762,0.0014166
 7,0.00464618,-0.06350620,-0.00815089,-0.06731659,0.00131853,0.00561078
 ,0.00665807,0.00211330,-0.00428288,0.00563458,-0.02635344,-0.00325234,
 0.46632822,-0.00025494,-0.00010510,-0.00000830,-0.00006249,-0.00018630
 ,-0.00010630,0.00194282,0.00005531,0.00009011,-0.00015645,0.00019317,0
 .00001152,-0.00021301,0.00007362,-0.00003637,0.00046278,0.00008528,0.0
 0004739,-0.00005792,0.00000602,0.00000110,0.00003157,-0.00004494,-0.00
 002344,0.00002500,0.00004560,-0.00000418,-0.00005771,-0.00001361,-0.00
 001071,-0.00491324,-0.00053205,0.00113619,0.00805349,0.01930135,-0.010
 12412,-0.00211624,-0.00415020,-0.00149262,-0.00716000,0.00297702,-0.00
 602507,-0.07625536,0.03529310,-0.03220369,0.06693197,0.00017410,0.0001
 1414,0.00007339,-0.00008911,0.00013686,0.00000967,-0.00086922,0.000496
 06,-0.00064556,0.00012290,-0.00021154,-0.00002662,0.00017254,-0.000053
 04,0.00006620,-0.00032980,-0.00005832,-0.00004528,0.00002774,-0.000006
 11,0.00000923,-0.00002586,0.00004267,-0.00001667,-0.00001618,-0.000022
 97,-0.00002823,0.00004116,0.00000733,0.00001305,0.00299118,0.00085288,
 -0.00106501,-0.00574480,-0.01135663,0.00591935,0.00182854,0.00509299,0
 .00165812,0.00432972,-0.00111126,0.00332484,0.03066734,-0.18161902,0.0
 9629402,-0.03130744,0.27688372,-0.00030576,-0.00016015,-0.00010678,0.0
 0009920,-0.00023003,-0.00005993,0.00127114,-0.00071519,0.00121314,-0.0
 0028484,0.00033248,0.00009062,-0.00024562,0.00006809,-0.00012736,0.000
 53671,0.00010125,0.00006852,-0.00005349,0.00001217,-0.00001900,0.00004
 279,-0.00006112,0.00003534,0.00002767,0.00003911,0.00003476,-0.0000686
 9,-0.00001345,-0.00002639,-0.00525424,-0.00114035,0.00167163,0.0057524
 9,0.02353400,-0.00790754,-0.00171821,-0.00446247,-0.00082101,-0.007784
 85,0.00300078,-0.00646865,-0.02811708,0.09948960,-0.14731426,0.0148612
 4,-0.15187405,0.18019884,-0.00017407,-0.00003115,-0.00005571,-0.000136
 52,-0.00014939,0.00001118,0.00160724,0.00007566,0.00010485,-0.00009746
 ,0.00012251,-0.00006191,-0.00017458,0.00006956,0.00001176,0.00035271,0
 .00002688,0.00004718,-0.00004916,0.00000452,-0.00000880,0.00000684,-0.
 00002831,-0.00001792,0.00002802,0.00004923,-0.00001001,-0.00004671,-0.
 00001272,-0.00000090,-0.00368159,-0.00088738,0.00047566,0.00963969,-0.
 01448861,-0.00750693,-0.00494338,-0.00420206,-0.00501813,-0.00217424,0
 .00232614,-0.00116296,-0.06682342,-0.00666051,-0.00729143,0.01051535,0
 .01502057,0.00151303,0.06471238,-0.00023932,-0.00004700,-0.00009251,-0
 .00020139,-0.00032218,-0.00000186,0.00134767,0.00056517,0.00079847,0.0
 0005357,0.00017384,-0.00002314,-0.00022883,0.00013668,-0.00004238,0.00
 045143,0.00004732,0.00005707,-0.00006211,0.00000801,-0.00002080,0.0000
 2268,-0.00002673,0.00002678,0.00003156,0.00005836,0.00002661,-0.000041
 67,-0.00001197,-0.00001036,-0.00458742,0.00018416,0.00127397,0.0114134
 0,-0.01514601,-0.00786322,-0.00561416,-0.00369652,-0.00508552,-0.00366
 139,0.00521549,-0.00217867,-0.00198234,-0.20193554,-0.09854115,0.00656
 330,-0.07786212,-0.00546078,-0.02270676,0.29592109,-0.00024854,-0.0000
 3539,-0.00014576,-0.00027996,-0.00038759,0.00004832,0.00116521,0.00063
 676,0.00130021,0.00005065,0.00018843,-0.00001343,-0.00028198,0.0001596
 0,-0.00007649,0.00051287,0.00004311,0.00007416,-0.00007038,0.00000799,
 -0.00002842,0.00002741,-0.00002940,0.00004066,0.00004661,0.00006032,0.
 00004749,-0.00004652,-0.00001900,-0.00002017,-0.00525823,0.00042875,0.
 00133404,0.01064792,-0.02153825,-0.00636527,-0.00651935,-0.00499948,-0
 .00635421,-0.00263887,0.00357658,-0.00106546,-0.00289846,-0.10070078,-
 0.13681621,-0.00024092,0.01098948,0.01934764,-0.02120200,0.14519429,0.
 16500493,-0.00075731,-0.00017791,-0.00034724,-0.00037609,-0.00102111,0
 .00018416,0.00348769,-0.00059946,0.00295962,-0.00068225,0.00094759,0.0
 0034691,-0.00071232,0.00013075,-0.00030462,0.00141496,0.00021205,0.000
 22342,-0.00017397,0.00001628,-0.00008452,0.00009185,-0.00005831,0.0001
 1935,0.00009498,0.00005486,0.00012938,-0.00017879,-0.00002520,-0.00008
 918,-0.01480296,-0.00052819,-0.00533724,-0.01511722,-0.00170254,0.0350
 3831,-0.00146496,-0.00496380,-0.00714660,-0.00279448,0.00388538,-0.006
 71447,-0.21030215,-0.01510425,0.09428465,0.00383064,-0.01737087,0.0203
 3900,-0.00814152,0.01996142,0.02781689,0.24815532,-0.00012186,-0.00003
 391,-0.00003633,-0.00001750,-0.00010912,-0.00000330,0.00040833,-0.0000
 7016,0.00031401,-0.00011063,0.00013160,0.00006671,-0.00004719,-0.00000
 426,-0.00004404,0.00015972,0.00005976,0.00003307,-0.00001982,0.0000023
 7,-0.00001113,0.00000820,-0.00000860,0.00002186,0.00001853,0.00000538,
 0.00000400,-0.00002247,-0.00000207,-0.00000828,-0.00175623,0.00001731,
 -0.00057719,-0.00243792,0.00380396,0.00407815,0.00043212,0.00061864,0.
 00052850,-0.00116222,0.00136445,-0.00210661,-0.01504440,-0.06643385,0.
 00957015,-0.02818167,-0.01137812,0.03762378,0.03152245,-0.00319608,-0.
 03350305,0.01655233,0.07526222,0.00003879,0.00000926,-0.00000542,0.000
 09608,-0.00000815,0.00002708,-0.00054717,-0.00004809,0.00013592,0.0000
 9536,0.00000385,0.00002375,0.00003285,-0.00000101,-0.00000472,-0.00007
 965,-0.00001362,-0.00000571,0.00001304,-0.00000039,-0.00000042,-0.0000
 1027,0.00001922,0.00000134,-0.00000718,-0.00001658,-0.00000540,0.00001
 324,0.00000270,0.00000004,0.00031396,0.00008757,-0.00002891,-0.0005113
 6,-0.00016553,0.00037396,0.00027438,0.00166048,0.00170728,0.00077905,-
 0.00154257,0.00183676,0.08624277,0.00862831,-0.12548761,0.03419629,0.0
 3530257,-0.03974622,0.04022858,-0.02799777,-0.03624975,-0.16125414,-0.
 01593008,0.19741839,-0.03943091,-0.01478102,-0.00721503,0.00450026,-0.
 00138727,-0.00024175,-0.00247519,-0.00250949,0.00013893,0.00731471,0.0
 0348779,0.00079672,-0.05541298,0.01500126,-0.00606894,-0.26474991,-0.0
 4190555,-0.03039043,-0.00007649,0.00123835,0.00030660,-0.00132651,-0.0
 0012604,-0.00008809,-0.00119253,0.00021529,-0.00010662,0.00167279,-0.0
 0157241,0.00029704,-0.00710295,-0.00003371,-0.00083275,0.00387951,0.00
 004803,-0.00619074,-0.00121571,0.00147187,0.00225542,-0.00090388,-0.00
 145487,0.00224937,0.00224124,0.00033053,0.00233337,-0.00063869,0.00044
 382,-0.00071564,-0.00048909,-0.00060820,-0.00067973,-0.00183965,-0.000
 21315,0.00010092,0.49384328,-0.03922178,0.00278698,-0.00522042,0.00448
 733,-0.00818330,-0.00085987,-0.00054169,0.00436653,0.00042545,-0.00177
 492,-0.00859370,-0.00135352,0.04606349,0.00852738,0.00566681,-0.005349
 67,-0.11342122,-0.00710512,0.00186228,0.00099310,0.00052421,-0.0015500
 7,0.00016539,-0.00015853,0.00167539,0.00018041,0.00020891,-0.00064179,
 0.00178135,0.00033424,0.00043350,0.00037138,0.00001261,-0.00026336,-0.
 00010654,0.00032202,0.00010326,-0.00002682,-0.00011151,0.00004393,0.00
 006128,-0.00005388,-0.00011113,-0.00000959,-0.00009595,0.00002661,-0.0
 0001479,0.00002657,0.00002501,0.00002874,0.00003208,0.00007185,0.00000
 574,-0.00000513,-0.07840919,0.34241176,-0.00963672,-0.00245830,0.00799
 196,0.00030885,-0.00154670,0.00604945,-0.00039603,0.00018425,-0.000598
 56,0.00030298,-0.00070944,0.00385860,-0.00333207,0.00202809,0.00653805
 ,-0.02701741,-0.01148373,-0.04775318,0.00048109,0.00049785,-0.00239700
 ,-0.00030879,0.00000711,-0.00022572,-0.00002942,0.00003673,0.00022474,
 0.00049747,0.00022440,-0.00284966,-0.00064642,0.00009558,-0.00055090,0
 .00048618,-0.00003651,-0.00069110,-0.00012491,0.00016456,0.00021817,-0
 .00010657,-0.00016269,0.00023179,0.00026274,0.00004515,0.00024750,-0.0
 0007249,0.00004697,-0.00007417,-0.00005676,-0.00006485,-0.00006986,-0.
 00019203,-0.00002330,0.00000907,0.04397705,0.01627375,0.07371935,0.002
 40123,0.00102657,0.00051351,-0.00101038,0.00194479,-0.00003861,0.00052
 356,-0.00020522,-0.00009009,-0.00075880,0.00131567,-0.00020304,-0.0003
 9105,-0.00445877,-0.00077666,-0.04550361,0.03399166,-0.00162980,-0.002
 27723,0.00067662,-0.00013532,0.00040305,0.00008640,0.00005095,-0.00015
 305,-0.00015583,-0.00000721,0.00010468,0.00016169,0.00012750,0.0010728
 4,0.00000322,0.00024878,-0.00065371,0.00001487,0.00103779,0.00021504,-
 0.00026944,-0.00039610,0.00016228,0.00026065,-0.00040913,-0.00039524,-
 0.00006176,-0.00041239,0.00011368,-0.00007974,0.00012730,0.00008670,0.
 00010896,0.00012119,0.00032948,0.00003908,-0.00001857,-0.10699580,0.03
 308711,-0.00289416,0.56169867,-0.00950671,0.00083608,-0.00093425,0.002
 00252,-0.00144522,0.00004513,-0.00041558,0.00121514,0.00020548,-0.0003
 5357,0.00001537,-0.00014627,-0.00533733,0.00156682,-0.00078375,0.01551
 777,0.00622958,0.00300079,-0.00141644,-0.00036396,-0.00016656,-0.00036
 409,-0.00009699,-0.00003459,-0.00044169,0.00010977,-0.00002487,-0.0000
 0271,0.00019743,0.00005258,-0.00195158,-0.00008405,-0.00019416,0.00109
 094,0.00003230,-0.00171441,-0.00033523,0.00037805,0.00060073,-0.000243
 25,-0.00040983,0.00062222,0.00061653,0.00009779,0.00063784,-0.00017665
 ,0.00011972,-0.00019544,-0.00013467,-0.00016799,-0.00018541,-0.0005008
 1,-0.00005995,0.00002655,0.06320646,-0.17796064,-0.00374271,0.08968144
 ,0.48090796,-0.00046449,0.00026340,-0.00103677,-0.00001676,0.00005130,
 0.00061348,-0.00006632,0.00000514,0.00047845,-0.00032508,0.00002753,0.
 00155057,-0.00094318,-0.00063418,0.00283129,-0.00331522,0.00517328,-0.
 00567386,-0.00037262,0.00007379,-0.00073077,0.00002791,0.00001130,-0.0
 0005069,-0.00003563,0.00001762,-0.00026021,0.00009948,0.00008120,-0.00
 065535,-0.00011627,0.00006914,-0.00037488,0.00015718,-0.00000297,-0.00
 001539,-0.00000692,-0.00001698,-0.00002947,-0.00001548,0.00000915,0.00
 000318,0.00001638,0.00000280,-0.00003101,-0.00000086,-0.00000262,0.000
 00721,-0.00000248,0.00000327,0.00000403,0.00002140,0.00000144,0.000000
 66,-0.00005341,-0.00732775,-0.05784273,0.00721371,0.00228007,0.5725064
 8,0.00039350,-0.00078112,0.00010180,-0.00068491,0.00030386,-0.00054969
 ,0.00006863,-0.00086575,-0.00017761,0.00078859,0.00050340,-0.00001509,
 -0.00110385,0.00058708,-0.00066375,0.00449696,0.00082161,0.00251267,-0
 .00175927,-0.00025390,0.00107212,-0.00001162,0.00000657,0.00004111,-0.
 00000917,0.00000407,0.00004098,0.00000964,-0.00008790,0.00010254,0.000
 04812,-0.00003852,0.00010966,-0.00005238,0.00000820,0.00000890,-0.0000
 0394,0.00001185,0.00001665,0.00000377,-0.00000089,-0.00000398,-0.00000
 054,-0.00000303,0.00001256,0.00000052,0.00000145,-0.00000203,-0.000001
 02,-0.00000282,-0.00000380,-0.00000948,-0.00000017,-0.00000010,-0.0047
 0881,0.01780333,0.01824375,-0.05177464,-0.01383499,-0.02500729,0.05250
 728,0.00068492,0.00083081,0.00039546,-0.00012478,-0.00000578,-0.000013
 74,0.00013014,0.00010970,-0.00002378,-0.00039242,-0.00008774,0.0001373
 5,0.00113401,-0.00051193,0.00056807,-0.00652169,-0.00003522,-0.0012523
 1,-0.00031335,0.00015738,0.00011893,0.00005982,0.00002968,0.00001675,0
 .00006189,-0.00002079,-0.00003052,-0.00001890,0.00011259,-0.00012413,0
 .00036193,-0.00000038,0.00002194,-0.00019475,0.00000535,0.00032482,0.0
 0006295,-0.00007750,-0.00011617,0.00004671,0.00007832,-0.00011882,-0.0
 0011681,-0.00001738,-0.00012450,0.00003406,-0.00002310,0.00003779,0.00
 002535,0.00003180,0.00003570,0.00009751,0.00001106,-0.00000519,0.01126
 577,-0.02605947,-0.02396537,-0.01073811,-0.09461199,-0.09804785,0.0048
 8176,0.11304230,0.00002212,-0.00101601,-0.00019423,-0.00027057,0.00056
 016,-0.00016113,0.00011875,-0.00017715,-0.00009077,-0.00005635,0.00009
 126,-0.00001727,0.00044452,0.00001899,-0.00016557,-0.00154928,-0.00025
 794,0.00066363,0.00013924,0.00069523,0.00026416,0.00002324,-0.00002098
 ,0.00002887,0.00002706,-0.00000634,0.00001318,-0.00003009,0.00003240,0
 .00001837,0.00005466,0.00002108,0.00009939,-0.00006586,0.00001529,0.00
 007144,0.00001770,-0.00002308,-0.00002917,0.00001190,0.00003000,-0.000
 04102,-0.00003538,-0.00000790,-0.00003462,0.00001060,-0.00000796,0.000
 01204,0.00000776,0.00000994,0.00001028,0.00002737,0.00000349,-0.000001
 29,0.00439663,-0.00220006,0.00718848,-0.02062252,-0.10296916,-0.259115
 07,0.02083891,0.11529322,0.27192109,-0.00002206,0.00001047,-0.00003615
 ,0.00004469,-0.00005670,-0.00000622,0.00006021,0.00000169,0.00001568,0
 .00007488,0.00035908,0.00005123,-0.00115892,-0.00020687,-0.00019283,0.
 00254113,0.00321440,0.00057233,0.00006608,0.00004200,0.00004675,-0.000
 04174,-0.00001433,-0.00001141,-0.00011540,-0.00001054,-0.00000801,0.00
 002305,0.00001880,-0.00000128,-0.00027100,-0.00002186,-0.00000367,0.00
 016080,0.00000721,-0.00023639,-0.00004658,0.00004651,0.00007674,-0.000
 03619,-0.00004771,0.00007786,0.00008279,0.00001224,0.00008024,-0.00002
 304,0.00001488,-0.00002458,-0.00001704,-0.00002105,-0.00002369,-0.0000
 6366,-0.00000721,0.00000345,-0.02558042,0.00133474,-0.00301574,-0.2848
 4106,-0.08771647,-0.03686887,0.00030040,-0.00128258,0.00004704,0.31422
 508,-0.00017674,-0.00104907,-0.00015091,0.00011340,0.00039776,0.000043
 96,-0.00008500,0.00012182,-0.00001658,-0.00016732,-0.00045955,-0.00006
 071,0.00162101,0.00025869,0.00018693,0.00175089,-0.00443205,-0.0002298
 8,-0.00036822,0.00070168,0.00005045,0.00004677,-0.00000164,0.00000228,
 0.00013023,0.00000850,0.00002566,-0.00004696,-0.00000396,-0.00000806,0
 .00005769,0.00005518,0.00002907,-0.00005497,-0.00000109,0.00007533,0.0
 0002022,-0.00001901,-0.00003102,0.00001199,0.00002208,-0.00003187,-0.0
 0003184,-0.00000506,-0.00003302,0.00000980,-0.00000672,0.00001003,0.00
 000743,0.00000936,0.00000950,0.00002555,0.00000280,-0.00000126,0.03947
 237,0.00308760,0.00501937,-0.10206136,-0.08047937,-0.01531603,-0.01191
 845,-0.00302812,0.00004389,0.08757618,0.08906453,-0.00004940,-0.000127
 00,0.00024867,-0.00000169,0.00002306,0.00013064,-0.00000634,0.00001302
 ,-0.00002278,-0.00000498,-0.00000665,0.00003209,-0.00001232,-0.0000109
 6,0.00020749,0.00044130,-0.00007233,0.00040329,0.00001482,0.00011005,-
 0.00031935,-0.00000540,-0.00000702,0.00003920,0.00000574,0.00000496,-0
 .00005738,-0.00000646,-0.00000319,0.00002569,-0.00003081,0.00000864,-0
 .00001552,0.00002110,-0.00000239,-0.00002011,-0.00000250,0.00000461,0.
 00000623,-0.00000189,-0.00000501,0.00000715,0.00000778,0.00000167,0.00
 000598,-0.00000216,0.00000101,-0.00000275,-0.00000109,-0.00000200,-0.0
 0000144,-0.00000495,-0.00000063,0.00000061,0.00055491,0.00039604,0.000
 62449,-0.03820927,-0.01356523,-0.05504376,-0.02552924,-0.00919162,-0.0
 0217058,0.04093246,0.01479204,0.05118840,0.00050083,-0.00102718,-0.000
 25915,-0.00085640,0.00034203,0.00044616,0.00003794,-0.00091791,0.00004
 844,0.00071974,0.00048369,0.00028822,-0.00114137,0.00047590,0.00053075
 ,0.00453463,0.00110545,-0.00133106,-0.00142509,0.00025652,-0.00143252,
 0.00000467,0.00001051,-0.00004265,0.00000541,0.00001128,-0.00004324,0.
 00003021,-0.00005733,-0.00011389,0.00000213,0.00003962,-0.00011793,0.0
 0003268,-0.00001532,0.00001759,0.00000039,-0.00000533,-0.00001106,-0.0
 0000571,0.00001270,-0.00001188,-0.00000413,-0.00000159,-0.00001812,0.0
 0000127,-0.00000293,0.00000448,0.00000085,0.00000345,0.00000368,0.0000
 1189,0.00000169,-0.00000031,0.00068773,0.02084580,-0.01673059,-0.07235
 665,-0.04938389,0.06007480,0.00150222,0.00085656,-0.00355745,-0.005361
 98,-0.01593266,0.02189039,0.07307872,0.00071687,0.00064382,-0.00009950
 ,-0.00015360,0.00010170,0.00003120,0.00014370,0.00009047,0.00002311,-0
 .00037635,-0.00005429,-0.00026001,0.00133194,-0.00043883,-0.00031601,-
 0.00685210,-0.00014862,-0.00054158,-0.00013165,0.00037504,-0.00006695,
 0.00006576,0.00002511,-0.00000666,0.00006297,-0.00002406,0.00004211,-0
 .00005308,0.00010249,0.00014137,0.00034912,0.00002834,0.00006310,-0.00
 020016,-0.00001135,0.00032412,0.00006225,-0.00007735,-0.00012148,0.000
 04400,0.00008036,-0.00011646,-0.00011784,-0.00001644,-0.00012162,0.000
 03372,-0.00002264,0.00003739,0.00002625,0.00003212,0.00003578,0.000096
 89,0.00001082,-0.00000517,0.00681938,-0.03039158,0.01956979,-0.0443685
 0,-0.13602602,0.11327794,0.00285437,0.01007041,-0.01012837,-0.00325289
 ,-0.00424435,0.00763891,0.04289895,0.15989482,0.00016402,0.00100053,-0
 .00007278,0.00009009,-0.00045385,-0.00005168,-0.00005595,0.00000340,-0
 .00006379,0.00016821,0.00002760,0.00000282,-0.00043369,0.00004316,-0.0
 0020832,0.00128115,0.00034194,0.00066799,-0.00053541,-0.00060805,-0.00
 030662,-0.00001677,0.00002400,0.00000824,-0.00002112,-0.00000201,0.000
 00488,0.00002285,-0.00002994,0.00001405,0.00003571,-0.00004995,-0.0000
 1636,-0.00000773,0.00000033,-0.00001323,-0.00000348,0.00001287,0.00002
 018,0.00000177,-0.00001767,0.00001630,0.00001233,0.00000192,0.00001949
 ,-0.00000320,0.00000408,-0.00000570,-0.00000296,-0.00000539,-0.0000052
 8,-0.00001546,-0.00000123,0.00000059,-0.00482382,0.00026903,0.00615125
 ,0.05640214,0.11718543,-0.19713537,0.00885097,0.01606399,-0.01827023,-
 0.00147496,-0.00440918,0.00473375,-0.05963469,-0.12940101,0.20450983\\
 -0.00000037,-0.00000126,0.00000202,0.00000022,-0.00000105,0.00000149,-
 0.00000042,-0.00000010,-0.00000009,0.00000066,-0.00000049,-0.00000129,
 0.00000058,-0.00000072,-0.00000086,0.00000010,-0.00000113,0.00000063,-
 0.00000017,-0.00000070,0.00000135,-0.00000026,-0.00000039,0.00000093,0
 .00000039,0.00000003,-0.00000111,0.00000039,-0.00000025,-0.00000070,0.
 00000114,-0.00000044,-0.00000187,-0.00000068,0.00000183,0.00000057,-0.
 00000020,0.00000226,-0.00000330,-0.00000150,0.00000411,-0.00000009,0.0
 0000013,0.00000135,-0.00000088,0.00000092,0.00000029,-0.00000314,-0.00
 000005,-0.00000026,-0.00000058,-0.00000041,0.00000291,-0.00000168,0.00
 000059,-0.00000232,0.00000179,-0.00000073,-0.00000127,0.00000269,-0.00
 000006,-0.00000119,0.00000160,-0.00000003,-0.00000093,0.00000115,-0.00
 000023,-0.00000029,0.00000136\\\@


 You don't have to suffer to be a poet.
 Adolescence is enough suffering for anyone.
                             -- John Ciardi
 Job cpu time:  0 days  8 hours 42 minutes  8.4 seconds.
 File lengths (MBytes):  RWF=    497 Int=      0 D2E=      0 Chk=     18 Scr=      1
 Normal termination of Gaussian 09 at Thu Aug 22 04:19:02 2019.
