 Entering Gaussian System, Link 0=/home/ubuntu/g09/g09
 Input=p-NO2-Ph-OTs-RB3LYP-aug-cc-pVDZ-T348-Water.gjf
 Output=p-NO2-Ph-OTs-RB3LYP-aug-cc-pVDZ-T348-Water.log
 Initial command:
 /home/ubuntu/g09/l1.exe /home/ubuntu/g09/Gau-31583.inp -scrdir=/home/ubuntu/g09/
 Entering Link 1 = /home/ubuntu/g09/l1.exe PID=     31585.
  
 Copyright (c) 1988,1990,1992,1993,1995,1998,2003,2009,2010,
            Gaussian, Inc.  All Rights Reserved.
  
 This is part of the Gaussian(R) 09 program.  It is based on
 the Gaussian(R) 03 system (copyright 2003, Gaussian, Inc.),
 the Gaussian(R) 98 system (copyright 1998, Gaussian, Inc.),
 the Gaussian(R) 94 system (copyright 1995, Gaussian, Inc.),
 the Gaussian 92(TM) system (copyright 1992, Gaussian, Inc.),
 the Gaussian 90(TM) system (copyright 1990, Gaussian, Inc.),
 the Gaussian 88(TM) system (copyright 1988, Gaussian, Inc.),
 the Gaussian 86(TM) system (copyright 1986, Carnegie Mellon
 University), and the Gaussian 82(TM) system (copyright 1983,
 Carnegie Mellon University). Gaussian is a federally registered
 trademark of Gaussian, Inc.
  
 This software contains proprietary and confidential information,
 including trade secrets, belonging to Gaussian, Inc.
  
 This software is provided under written license and may be
 used, copied, transmitted, or stored only in accord with that
 written license.
  
 The following legend is applicable only to US Government
 contracts under FAR:
  
                    RESTRICTED RIGHTS LEGEND
  
 Use, reproduction and disclosure by the US Government is
 subject to restrictions as set forth in subparagraphs (a)
 and (c) of the Commercial Computer Software - Restricted
 Rights clause in FAR 52.227-19.
  
 Gaussian, Inc.
 340 Quinnipiac St., Bldg. 40, Wallingford CT 06492
  
  
 ---------------------------------------------------------------
 Warning -- This program may not be used in any manner that
 competes with the business of Gaussian, Inc. or will provide
 assistance to any competitor of Gaussian, Inc.  The licensee
 of this program is prohibited from giving any competitor of
 Gaussian, Inc. access to this program.  By using this program,
 the user acknowledges that Gaussian, Inc. is engaged in the
 business of creating and licensing software in the field of
 computational chemistry and represents and warrants to the
 licensee that it is not a competitor of Gaussian, Inc. and that
 it will not use this program in any manner prohibited above.
 ---------------------------------------------------------------
  

 Cite this work as:
 Gaussian 09, Revision B.01,
 M. J. Frisch, G. W. Trucks, H. B. Schlegel, G. E. Scuseria, 
 M. A. Robb, J. R. Cheeseman, G. Scalmani, V. Barone, B. Mennucci, 
 G. A. Petersson, H. Nakatsuji, M. Caricato, X. Li, H. P. Hratchian, 
 A. F. Izmaylov, J. Bloino, G. Zheng, J. L. Sonnenberg, M. Hada, 
 M. Ehara, K. Toyota, R. Fukuda, J. Hasegawa, M. Ishida, T. Nakajima, 
 Y. Honda, O. Kitao, H. Nakai, T. Vreven, J. A. Montgomery, Jr., 
 J. E. Peralta, F. Ogliaro, M. Bearpark, J. J. Heyd, E. Brothers, 
 K. N. Kudin, V. N. Staroverov, T. Keith, R. Kobayashi, J. Normand, 
 K. Raghavachari, A. Rendell, J. C. Burant, S. S. Iyengar, J. Tomasi, 
 M. Cossi, N. Rega, J. M. Millam, M. Klene, J. E. Knox, J. B. Cross, 
 V. Bakken, C. Adamo, J. Jaramillo, R. Gomperts, R. E. Stratmann, 
 O. Yazyev, A. J. Austin, R. Cammi, C. Pomelli, J. W. Ochterski, 
 R. L. Martin, K. Morokuma, V. G. Zakrzewski, G. A. Voth, 
 P. Salvador, J. J. Dannenberg, S. Dapprich, A. D. Daniels, 
 O. Farkas, J. B. Foresman, J. V. Ortiz, J. Cioslowski, 
 and D. J. Fox, Gaussian, Inc., Wallingford CT, 2010.
 
 ******************************************
 Gaussian 09:  EM64L-G09RevB.01 12-Aug-2010
                18-Nov-2016 
 ******************************************
 %mem=500MW
 %nproc=7
 Will use up to    7 processors via shared memory.
 ----------------------------------------------------------------------
 #p scrf=(cpcm,solvent=water) opt Temperature=348.15 SCF=(maxcycles=102
 4,conver=6) int=(grid=ultrafine) CPHF=(grid=fine) freq rb3lyp/aug-cc-p
 vdz
 ----------------------------------------------------------------------
 1/14=-1,18=20,19=15,26=3,38=1,112=348150/1,3;
 2/9=110,12=2,17=6,18=5,40=1/2;
 3/5=16,7=10,11=2,16=1,25=1,30=1,70=2101,71=1,72=1,74=-5,75=-5,116=1/1,2,3;
 4//1;
 5/5=2,6=6,7=1024,38=5,53=1,96=4/2;
 6/7=2,8=2,9=2,10=2,28=1/1;
 7//1,2,3,16;
 1/14=-1,18=20,19=15/3(2);
 2/9=110/2;
 99//99;
 2/9=110/2;
 3/5=16,7=10,11=2,16=1,25=1,30=1,70=2105,71=1,72=1,74=-5,75=-5,116=1/1,2,3;
 4/5=5,16=3/1;
 5/5=2,6=6,7=1024,38=5,53=1,96=4/2;
 7//1,2,3,16;
 1/14=-1,18=20,19=15/3(-5);
 2/9=110/2;
 6/7=2,8=2,9=2,10=2,19=2,28=1/1;
 99/9=1/99;
 Leave Link    1 at Fri Nov 18 23:31:17 2016, MaxMem=  524288000 cpu:       0.7
 (Enter /home/ubuntu/g09/l101.exe)
 ---------------------------------
 p-NO2-Ph-OTs-RB3LYP-aug-cc-pVDZ--
 ---------------------------------
 Symbolic Z-matrix:
 Charge =  0 Multiplicity = 1
 C                    -3.3594    1.21804  -0.36685 
 C                    -1.96597   1.21642  -0.36813 
 C                    -1.28248  -0.0039   -0.35769 
 C                    -1.96508  -1.22456  -0.33465 
 C                    -3.35851  -1.22711  -0.33327 
 C                    -4.0339   -0.0048   -0.35111 
 H                    -1.403     2.14714  -0.37775 
 H                    -1.40149  -2.15481  -0.31868 
 H                    -3.92408  -2.15506  -0.31877 
 C                     3.22544  -1.21866   0.10394 
 C                     4.51304  -1.21204  -0.42883 
 C                     5.1812   -0.00572  -0.70651 
 C                     4.52508   1.20413  -0.43257 
 C                     3.23458   1.22341   0.10104 
 C                     2.60422   0.00664   0.35933 
 H                     2.71364  -2.15163   0.33155 
 H                     5.01074  -2.16188  -0.62862 
 H                     5.03049   2.1488   -0.63471 
 H                     2.73109   2.16166   0.3255 
 S                     0.95593   0.01473   1.05193 
 O                     0.66758   1.30779   1.70868 
 O                     0.66816  -1.26198   1.74023 
 O                     0.10678  -0.0043   -0.44224 
 C                     6.57635  -0.02372  -1.2804 
 H                     7.27133  -0.5448   -0.60612 
 H                     6.59794  -0.55543  -2.24266 
 H                     6.95665   0.99172  -1.44315 
 H                    -3.92563   2.14563  -0.37782 
 N                    -5.50871  -0.0054   -0.35577 
 O                    -6.08081  -1.09307  -0.34323 
 O                    -6.0816    1.08179  -0.37282 
 
 NAtoms=     31 NQM=     31 NQMF=      0 NMic=      0 NMicF=      0 NTot=     31.
                    Isotopes and Nuclear Properties:
 (Nuclear quadrupole moments (NQMom) in fm**2, nuclear magnetic moments (NMagM)
  in nuclear magnetons)

  Atom         1           2           3           4           5           6           7           8           9          10
 IAtWgt=          12          12          12          12          12          12           1           1           1          12
 AtmWgt=  12.0000000  12.0000000  12.0000000  12.0000000  12.0000000  12.0000000   1.0078250   1.0078250   1.0078250  12.0000000
 NucSpn=           0           0           0           0           0           0           1           1           1           0
 AtZEff=   0.0000000   0.0000000   0.0000000   0.0000000   0.0000000   0.0000000   0.0000000   0.0000000   0.0000000   0.0000000
 NQMom=    0.0000000   0.0000000   0.0000000   0.0000000   0.0000000   0.0000000   0.0000000   0.0000000   0.0000000   0.0000000
 NMagM=    0.0000000   0.0000000   0.0000000   0.0000000   0.0000000   0.0000000   2.7928460   2.7928460   2.7928460   0.0000000

  Atom        11          12          13          14          15          16          17          18          19          20
 IAtWgt=          12          12          12          12          12           1           1           1           1          32
 AtmWgt=  12.0000000  12.0000000  12.0000000  12.0000000  12.0000000   1.0078250   1.0078250   1.0078250   1.0078250  31.9720718
 NucSpn=           0           0           0           0           0           1           1           1           1           0
 AtZEff=   0.0000000   0.0000000   0.0000000   0.0000000   0.0000000   0.0000000   0.0000000   0.0000000   0.0000000   0.0000000
 NQMom=    0.0000000   0.0000000   0.0000000   0.0000000   0.0000000   0.0000000   0.0000000   0.0000000   0.0000000   0.0000000
 NMagM=    0.0000000   0.0000000   0.0000000   0.0000000   0.0000000   2.7928460   2.7928460   2.7928460   2.7928460   0.0000000

  Atom        21          22          23          24          25          26          27          28          29          30
 IAtWgt=          16          16          16          12           1           1           1           1          14          16
 AtmWgt=  15.9949146  15.9949146  15.9949146  12.0000000   1.0078250   1.0078250   1.0078250   1.0078250  14.0030740  15.9949146
 NucSpn=           0           0           0           0           1           1           1           1           2           0
 AtZEff=   0.0000000   0.0000000   0.0000000   0.0000000   0.0000000   0.0000000   0.0000000   0.0000000   0.0000000   0.0000000
 NQMom=    0.0000000   0.0000000   0.0000000   0.0000000   0.0000000   0.0000000   0.0000000   0.0000000   2.0440000   0.0000000
 NMagM=    0.0000000   0.0000000   0.0000000   0.0000000   2.7928460   2.7928460   2.7928460   2.7928460   0.4037610   0.0000000

  Atom        31
 IAtWgt=          16
 AtmWgt=  15.9949146
 NucSpn=           0
 AtZEff=   0.0000000
 NQMom=    0.0000000
 NMagM=    0.0000000
 Leave Link  101 at Fri Nov 18 23:31:17 2016, MaxMem=  524288000 cpu:       0.5
 (Enter /home/ubuntu/g09/l103.exe)

 GradGradGradGradGradGradGradGradGradGradGradGradGradGradGradGradGradGrad
 Berny optimization.
 Initialization pass.
                           ----------------------------
                           !    Initial Parameters    !
                           ! (Angstroms and Degrees)  !
 --------------------------                            --------------------------
 ! Name  Definition              Value          Derivative Info.                !
 --------------------------------------------------------------------------------
 ! R1    R(1,2)                  1.3934         estimate D2E/DX2                !
 ! R2    R(1,6)                  1.3966         estimate D2E/DX2                !
 ! R3    R(1,28)                 1.0868         estimate D2E/DX2                !
 ! R4    R(2,3)                  1.3987         estimate D2E/DX2                !
 ! R5    R(2,7)                  1.0878         estimate D2E/DX2                !
 ! R6    R(3,4)                  1.3987         estimate D2E/DX2                !
 ! R7    R(3,23)                 1.3918         estimate D2E/DX2                !
 ! R8    R(4,5)                  1.3934         estimate D2E/DX2                !
 ! R9    R(4,8)                  1.0878         estimate D2E/DX2                !
 ! R10   R(5,6)                  1.3966         estimate D2E/DX2                !
 ! R11   R(5,9)                  1.0868         estimate D2E/DX2                !
 ! R12   R(6,29)                 1.4748         estimate D2E/DX2                !
 ! R13   R(10,11)                1.3935         estimate D2E/DX2                !
 ! R14   R(10,15)                1.3973         estimate D2E/DX2                !
 ! R15   R(10,16)                1.0882         estimate D2E/DX2                !
 ! R16   R(11,12)                1.4067         estimate D2E/DX2                !
 ! R17   R(11,17)                1.0908         estimate D2E/DX2                !
 ! R18   R(12,13)                1.4033         estimate D2E/DX2                !
 ! R19   R(12,24)                1.5087         estimate D2E/DX2                !
 ! R20   R(13,14)                1.3966         estimate D2E/DX2                !
 ! R21   R(13,18)                1.0903         estimate D2E/DX2                !
 ! R22   R(14,15)                1.3945         estimate D2E/DX2                !
 ! R23   R(14,19)                1.0882         estimate D2E/DX2                !
 ! R24   R(15,20)                1.7879         estimate D2E/DX2                !
 ! R25   R(20,21)                1.4787         estimate D2E/DX2                !
 ! R26   R(20,22)                1.4787         estimate D2E/DX2                !
 ! R27   R(20,23)                1.7187         estimate D2E/DX2                !
 ! R28   R(24,25)                1.0996         estimate D2E/DX2                !
 ! R29   R(24,26)                1.0996         estimate D2E/DX2                !
 ! R30   R(24,27)                1.0965         estimate D2E/DX2                !
 ! R31   R(29,30)                1.229          estimate D2E/DX2                !
 ! R32   R(29,31)                1.229          estimate D2E/DX2                !
 ! A1    A(2,1,6)              118.8125         estimate D2E/DX2                !
 ! A2    A(2,1,28)             121.4654         estimate D2E/DX2                !
 ! A3    A(6,1,28)             119.7221         estimate D2E/DX2                !
 ! A4    A(1,2,3)              119.318          estimate D2E/DX2                !
 ! A5    A(1,2,7)              121.1013         estimate D2E/DX2                !
 ! A6    A(3,2,7)              119.5807         estimate D2E/DX2                !
 ! A7    A(2,3,4)              121.5356         estimate D2E/DX2                !
 ! A8    A(2,3,23)             119.1793         estimate D2E/DX2                !
 ! A9    A(4,3,23)             119.1999         estimate D2E/DX2                !
 ! A10   A(3,4,5)              119.3157         estimate D2E/DX2                !
 ! A11   A(3,4,8)              119.5844         estimate D2E/DX2                !
 ! A12   A(5,4,8)              121.0999         estimate D2E/DX2                !
 ! A13   A(4,5,6)              118.8147         estimate D2E/DX2                !
 ! A14   A(4,5,9)              121.4642         estimate D2E/DX2                !
 ! A15   A(6,5,9)              119.7211         estimate D2E/DX2                !
 ! A16   A(1,6,5)              122.2011         estimate D2E/DX2                !
 ! A17   A(1,6,29)             118.8993         estimate D2E/DX2                !
 ! A18   A(5,6,29)             118.8995         estimate D2E/DX2                !
 ! A19   A(11,10,15)           118.4578         estimate D2E/DX2                !
 ! A20   A(11,10,16)           121.2399         estimate D2E/DX2                !
 ! A21   A(15,10,16)           120.2971         estimate D2E/DX2                !
 ! A22   A(10,11,12)           121.2279         estimate D2E/DX2                !
 ! A23   A(10,11,17)           119.1762         estimate D2E/DX2                !
 ! A24   A(12,11,17)           119.5953         estimate D2E/DX2                !
 ! A25   A(11,12,13)           118.6021         estimate D2E/DX2                !
 ! A26   A(11,12,24)           120.2719         estimate D2E/DX2                !
 ! A27   A(13,12,24)           121.1253         estimate D2E/DX2                !
 ! A28   A(12,13,14)           121.2329         estimate D2E/DX2                !
 ! A29   A(12,13,18)           119.6085         estimate D2E/DX2                !
 ! A30   A(14,13,18)           119.1581         estimate D2E/DX2                !
 ! A31   A(13,14,15)           118.4517         estimate D2E/DX2                !
 ! A32   A(13,14,19)           121.2142         estimate D2E/DX2                !
 ! A33   A(15,14,19)           120.3289         estimate D2E/DX2                !
 ! A34   A(10,15,14)           122.0271         estimate D2E/DX2                !
 ! A35   A(10,15,20)           118.9884         estimate D2E/DX2                !
 ! A36   A(14,15,20)           118.9823         estimate D2E/DX2                !
 ! A37   A(15,20,21)           110.8418         estimate D2E/DX2                !
 ! A38   A(15,20,22)           110.8438         estimate D2E/DX2                !
 ! A39   A(15,20,23)            96.8148         estimate D2E/DX2                !
 ! A40   A(21,20,22)           120.6858         estimate D2E/DX2                !
 ! A41   A(21,20,23)           107.4252         estimate D2E/DX2                !
 ! A42   A(22,20,23)           107.3949         estimate D2E/DX2                !
 ! A43   A(3,23,20)            116.1253         estimate D2E/DX2                !
 ! A44   A(12,24,25)           110.9072         estimate D2E/DX2                !
 ! A45   A(12,24,26)           110.9042         estimate D2E/DX2                !
 ! A46   A(12,24,27)           111.4787         estimate D2E/DX2                !
 ! A47   A(25,24,26)           107.1608         estimate D2E/DX2                !
 ! A48   A(25,24,27)           108.0991         estimate D2E/DX2                !
 ! A49   A(26,24,27)           108.1263         estimate D2E/DX2                !
 ! A50   A(6,29,30)            117.7633         estimate D2E/DX2                !
 ! A51   A(6,29,31)            117.7633         estimate D2E/DX2                !
 ! A52   A(30,29,31)           124.4734         estimate D2E/DX2                !
 ! D1    D(6,1,2,3)              0.188          estimate D2E/DX2                !
 ! D2    D(6,1,2,7)           -179.852          estimate D2E/DX2                !
 ! D3    D(28,1,2,3)          -179.8098         estimate D2E/DX2                !
 ! D4    D(28,1,2,7)             0.1502         estimate D2E/DX2                !
 ! D5    D(2,1,6,5)              0.1632         estimate D2E/DX2                !
 ! D6    D(2,1,6,29)          -179.7318         estimate D2E/DX2                !
 ! D7    D(28,1,6,5)          -179.839          estimate D2E/DX2                !
 ! D8    D(28,1,6,29)            0.266          estimate D2E/DX2                !
 ! D9    D(1,2,3,4)             -0.5444         estimate D2E/DX2                !
 ! D10   D(1,2,3,23)           176.0713         estimate D2E/DX2                !
 ! D11   D(7,2,3,4)            179.495          estimate D2E/DX2                !
 ! D12   D(7,2,3,23)            -3.8893         estimate D2E/DX2                !
 ! D13   D(2,3,4,5)              0.5424         estimate D2E/DX2                !
 ! D14   D(2,3,4,8)           -179.491          estimate D2E/DX2                !
 ! D15   D(23,3,4,5)          -176.0727         estimate D2E/DX2                !
 ! D16   D(23,3,4,8)             3.8939         estimate D2E/DX2                !
 ! D17   D(2,3,23,20)           91.7229         estimate D2E/DX2                !
 ! D18   D(4,3,23,20)          -91.5814         estimate D2E/DX2                !
 ! D19   D(3,4,5,6)             -0.184          estimate D2E/DX2                !
 ! D20   D(3,4,5,9)            179.8109         estimate D2E/DX2                !
 ! D21   D(8,4,5,6)            179.8499         estimate D2E/DX2                !
 ! D22   D(8,4,5,9)             -0.1552         estimate D2E/DX2                !
 ! D23   D(4,5,6,1)             -0.1652         estimate D2E/DX2                !
 ! D24   D(4,5,6,29)           179.7298         estimate D2E/DX2                !
 ! D25   D(9,5,6,1)            179.8398         estimate D2E/DX2                !
 ! D26   D(9,5,6,29)            -0.2652         estimate D2E/DX2                !
 ! D27   D(1,6,29,30)          179.9184         estimate D2E/DX2                !
 ! D28   D(1,6,29,31)           -0.0346         estimate D2E/DX2                !
 ! D29   D(5,6,29,30)            0.0199         estimate D2E/DX2                !
 ! D30   D(5,6,29,31)         -179.9331         estimate D2E/DX2                !
 ! D31   D(15,10,11,12)          0.0177         estimate D2E/DX2                !
 ! D32   D(15,10,11,17)        179.7297         estimate D2E/DX2                !
 ! D33   D(16,10,11,12)       -179.152          estimate D2E/DX2                !
 ! D34   D(16,10,11,17)          0.56           estimate D2E/DX2                !
 ! D35   D(11,10,15,14)         -0.1866         estimate D2E/DX2                !
 ! D36   D(11,10,15,20)       -179.6408         estimate D2E/DX2                !
 ! D37   D(16,10,15,14)        178.9912         estimate D2E/DX2                !
 ! D38   D(16,10,15,20)         -0.4631         estimate D2E/DX2                !
 ! D39   D(10,11,12,13)          0.1583         estimate D2E/DX2                !
 ! D40   D(10,11,12,24)        179.8637         estimate D2E/DX2                !
 ! D41   D(17,11,12,13)       -179.5525         estimate D2E/DX2                !
 ! D42   D(17,11,12,24)          0.1528         estimate D2E/DX2                !
 ! D43   D(11,12,13,14)         -0.1748         estimate D2E/DX2                !
 ! D44   D(11,12,13,18)        179.56           estimate D2E/DX2                !
 ! D45   D(24,12,13,14)       -179.8776         estimate D2E/DX2                !
 ! D46   D(24,12,13,18)         -0.1428         estimate D2E/DX2                !
 ! D47   D(11,12,24,25)        -59.6944         estimate D2E/DX2                !
 ! D48   D(11,12,24,26)         59.2533         estimate D2E/DX2                !
 ! D49   D(11,12,24,27)        179.7957         estimate D2E/DX2                !
 ! D50   D(13,12,24,25)        120.0034         estimate D2E/DX2                !
 ! D51   D(13,12,24,26)       -121.0489         estimate D2E/DX2                !
 ! D52   D(13,12,24,27)         -0.5065         estimate D2E/DX2                !
 ! D53   D(12,13,14,15)          0.0147         estimate D2E/DX2                !
 ! D54   D(12,13,14,19)        179.1908         estimate D2E/DX2                !
 ! D55   D(18,13,14,15)       -179.7213         estimate D2E/DX2                !
 ! D56   D(18,13,14,19)         -0.5452         estimate D2E/DX2                !
 ! D57   D(13,14,15,10)          0.1706         estimate D2E/DX2                !
 ! D58   D(13,14,15,20)        179.6249         estimate D2E/DX2                !
 ! D59   D(19,14,15,10)       -179.013          estimate D2E/DX2                !
 ! D60   D(19,14,15,20)          0.4413         estimate D2E/DX2                !
 ! D61   D(10,15,20,21)        158.8213         estimate D2E/DX2                !
 ! D62   D(10,15,20,22)         21.9979         estimate D2E/DX2                !
 ! D63   D(10,15,20,23)        -89.5739         estimate D2E/DX2                !
 ! D64   D(14,15,20,21)        -20.6498         estimate D2E/DX2                !
 ! D65   D(14,15,20,22)       -157.4732         estimate D2E/DX2                !
 ! D66   D(14,15,20,23)         90.955          estimate D2E/DX2                !
 ! D67   D(15,20,23,3)         179.9926         estimate D2E/DX2                !
 ! D68   D(21,20,23,3)         -65.61           estimate D2E/DX2                !
 ! D69   D(22,20,23,3)          65.6013         estimate D2E/DX2                !
 --------------------------------------------------------------------------------
 Trust Radius=3.00D-01 FncErr=1.00D-07 GrdErr=1.00D-06
 Number of steps in this run=    163 maximum allowed number of steps=    186.
 GradGradGradGradGradGradGradGradGradGradGradGradGradGradGradGradGradGrad

 Leave Link  103 at Fri Nov 18 23:31:17 2016, MaxMem=  524288000 cpu:       0.1
 (Enter /home/ubuntu/g09/l202.exe)
                          Input orientation:                          
 ---------------------------------------------------------------------
 Center     Atomic      Atomic             Coordinates (Angstroms)
 Number     Number       Type             X           Y           Z
 ---------------------------------------------------------------------
      1          6           0       -3.359400    1.218040   -0.366850
      2          6           0       -1.965970    1.216420   -0.368130
      3          6           0       -1.282480   -0.003900   -0.357690
      4          6           0       -1.965080   -1.224560   -0.334650
      5          6           0       -3.358510   -1.227110   -0.333270
      6          6           0       -4.033900   -0.004800   -0.351110
      7          1           0       -1.403000    2.147140   -0.377750
      8          1           0       -1.401490   -2.154810   -0.318680
      9          1           0       -3.924080   -2.155060   -0.318770
     10          6           0        3.225440   -1.218660    0.103940
     11          6           0        4.513040   -1.212040   -0.428830
     12          6           0        5.181200   -0.005720   -0.706510
     13          6           0        4.525080    1.204130   -0.432570
     14          6           0        3.234580    1.223410    0.101040
     15          6           0        2.604220    0.006640    0.359330
     16          1           0        2.713640   -2.151630    0.331550
     17          1           0        5.010740   -2.161880   -0.628620
     18          1           0        5.030490    2.148800   -0.634710
     19          1           0        2.731090    2.161660    0.325500
     20         16           0        0.955930    0.014730    1.051930
     21          8           0        0.667580    1.307790    1.708680
     22          8           0        0.668160   -1.261980    1.740230
     23          8           0        0.106780   -0.004300   -0.442240
     24          6           0        6.576350   -0.023720   -1.280400
     25          1           0        7.271330   -0.544800   -0.606120
     26          1           0        6.597940   -0.555430   -2.242660
     27          1           0        6.956650    0.991720   -1.443150
     28          1           0       -3.925630    2.145630   -0.377820
     29          7           0       -5.508710   -0.005400   -0.355770
     30          8           0       -6.080810   -1.093070   -0.343230
     31          8           0       -6.081600    1.081790   -0.372820
 ---------------------------------------------------------------------
                    Distance matrix (angstroms):
                    1          2          3          4          5
     1  C    0.000000
     2  C    1.393432   0.000000
     3  C    2.409734   1.398731   0.000000
     4  C    2.812732   2.441210   1.398744   0.000000
     5  C    2.445381   2.812689   2.409718   1.393433   0.000000
     6  C    1.396616   2.401667   2.751428   2.401687   1.396607
     7  H    2.165836   1.087781   2.154507   3.418501   3.900200
     8  H    3.900237   3.418519   2.154553   1.087775   2.165818
     9  H    3.420377   3.899168   3.406913   2.168816   1.086817
    10  C    7.036993   5.753538   4.691491   5.209020   6.598456
    11  C    8.239202   6.919442   5.920533   6.478817   7.872144
    12  C    8.634512   7.258799   6.473086   7.259006   8.634683
    13  C    7.884766   6.491381   5.932343   6.930390   8.250562
    14  C    6.610561   5.221675   4.703249   5.763579   7.047163
    15  C    6.128588   4.783242   3.952299   4.782882   6.128294
    16  H    6.980276   5.807931   4.588766   4.815984   6.178004
    17  H    9.030594   7.755981   6.658446   7.044647   8.426469
    18  H    8.445609   7.063346   6.675661   7.772232   9.047815
    19  H    6.201922   4.841175   4.611414   5.827203   7.000069
    20  S    4.699251   3.463832   2.645346   3.462765   4.698440
    21  O    4.531274   3.355156   3.129401   4.185558   5.177323
    22  O    5.177985   4.186441   3.128743   3.352683   4.529314
    23  O    3.676167   2.406645   1.391831   2.406910   3.676326
    24  C   10.054634   8.679943   7.912837   8.677124  10.052196
    25  H   10.778556   9.406713   8.574494   9.265368  10.655210
    26  H   10.286519   8.943929   8.121473   8.798497  10.160109
    27  H   10.374513   8.989956   8.369752   9.259478  10.609315
    28  H    1.086812   2.168823   3.406923   3.899205   3.420378
    29  N    2.473148   3.747533   4.226231   3.747547   2.473144
    30  O    3.570415   4.718715   4.920414   4.117839   2.725616
    31  O    2.725614   4.117834   4.920417   4.718733   3.570406
                    6          7          8          9         10
     6  C    0.000000
     7  H    3.398998   0.000000
     8  H    3.398996   4.302356   0.000000
     9  H    2.153305   4.986807   2.522590   0.000000
    10  C    7.374181   5.743091   4.739564   7.222961   0.000000
    11  C    8.632129   6.803398   5.990210   8.490371   1.393485
    12  C    9.221951   6.935026   6.935475   9.363553   2.439887
    13  C    8.644321   6.002866   6.813199   9.093152   2.801217
    14  C    7.385373   4.752859   5.751668   7.926961   2.442089
    15  C    6.676039   4.602482   4.601877   6.910244   1.397318
    16  H    7.113663   5.994102   4.166186   6.669502   1.088200
    17  H    9.302447   7.730889   6.419720   8.940194   2.147930
    18  H    9.321029   6.438620   7.745405   9.940189   3.891477
    19  H    7.135576   4.193503   6.010416   7.958671   3.423454
    20  S    5.183368   3.486504   3.484667   5.513738   2.751474
    21  O    5.298070   3.056959   4.514514   6.097969   3.937104
    22  O    5.297506   4.516375   3.052820   5.111335   3.036281
    23  O    4.141683   2.629123   2.629608   4.570432   3.391021
    24  C   10.650885   8.318500   8.313386  10.757619   3.817444
    25  H   11.320992   9.085301   8.825676  11.314270   4.162631
    26  H   10.812825   8.648515   8.381563  10.815409   4.161750
    27  H   11.089535   8.506105   9.001310  11.382299   4.604476
    28  H    2.153320   2.522630   4.986839   4.301096   7.917597
    29  N    1.474817   4.635813   4.635795   2.670854   8.829989
    30  O    2.318239   5.690524   4.798326   2.404143   9.317834
    31  O    2.318237   4.798364   5.690513   3.890374   9.598977
                   11         12         13         14         15
    11  C    0.000000
    12  C    1.406681   0.000000
    13  C    2.416203   1.403308   0.000000
    14  C    2.801185   2.439719   1.396604   0.000000
    15  C    2.397910   2.788726   2.398081   1.394488   0.000000
    16  H    2.167683   3.430940   3.889257   3.422778   2.161220
    17  H    1.090787   2.164290   3.406512   3.891958   3.386719
    18  H    3.406668   2.160978   1.090276   2.150109   3.385816
    19  H    3.889243   3.430105   2.170238   1.088208   2.159016
    20  S    4.043593   4.576618   4.044409   2.749063   1.787909
    21  O    5.070114   5.284999   4.413162   3.030036   2.695239
    22  O    4.414795   5.285098   5.067405   3.930728   2.695294
    23  O    4.568801   5.081297   4.580586   3.403756   2.622945
    24  C    2.528740   1.508681   2.536561   3.825067   4.297377
    25  H    2.843379   2.160863   3.260485   4.463406   4.797718
    26  H    2.840409   2.160808   3.266378   4.468713   4.799591
    27  H    3.443346   2.165583   2.641765   4.036336   4.812792
    28  H    9.082274   9.363263   8.503171   7.235220   6.910688
    29  N   10.094394  10.695662  10.106721   8.841028   8.144394
    30  O   10.594864  11.320211  10.852189   9.609368   8.782522
    31  O   10.840258  11.320101  10.607554   9.329298   8.782680
                   16         17         18         19         20
    16  H    0.000000
    17  H    2.489719   0.000000
    18  H    4.979473   4.310730   0.000000
    19  H    4.313330   4.979975   2.491869   0.000000
    20  S    2.881251   4.899323   4.899086   2.878924   0.000000
    21  O    4.248580   6.030308   5.023321   2.626853   1.478672
    22  O    2.638152   5.027850   6.025254   4.240100   1.478701
    23  O    3.464895   5.360850   5.377342   3.488239   1.718709
    24  C    4.695414   2.729044   2.743436   4.705404   6.085258
    25  H    4.922770   2.779518   3.503950   5.367180   6.553356
    26  H    4.925667   2.775790   3.515005   5.378713   6.558329
    27  H    5.570758   3.794103   2.387991   4.727816   6.571801
    28  H    7.940375   9.923520   8.959804   6.693791   5.514939
    29  N    8.525594  10.741680  10.760721   8.547197   6.616162
    30  O    8.883593  11.146582  11.578241   9.417539   7.258747
    31  O    9.397201  11.559707  11.166272   8.906025   7.259157
                   21         22         23         24         25
    21  O    0.000000
    22  O    2.569964   0.000000
    23  O    2.581188   2.580713   0.000000
    24  C    6.754338   6.750126   6.523667   0.000000
    25  H    7.238778   7.044257   7.186778   1.099625   0.000000
    26  H    7.365721   7.178086   6.758729   1.099603   1.769698
    27  H    7.041756   7.399877   6.993897   1.096464   1.777790
    28  H    5.114004   6.099250   4.570195  10.761613  11.517919
    29  N    6.643266   6.642735   5.616156  12.120394  12.793868
    30  O    7.450854   7.065262   6.283430  12.736777  13.365977
    31  O    7.066481   7.451007   6.283348  12.738507  13.453660
                   26         27         28         29         30
    26  H    0.000000
    27  H    1.778078   0.000000
    28  H   11.023560  10.995020   0.000000
    29  N   12.265148  12.552364   2.670872   0.000000
    30  O   12.831508  13.248832   3.890395   1.229017   0.000000
    31  O   12.920818  13.082419   2.404160   1.229014   2.175061
                   31
    31  O    0.000000
 Stoichiometry    C13H11NO5S
 Framework group  C1[X(C13H11NO5S)]
 Deg. of freedom    87
 Full point group                 C1      NOp   1
 Largest Abelian subgroup         C1      NOp   1
 Largest concise Abelian subgroup C1      NOp   1
                         Standard orientation:                         
 ---------------------------------------------------------------------
 Center     Atomic      Atomic             Coordinates (Angstroms)
 Number     Number       Type             X           Y           Z
 ---------------------------------------------------------------------
      1          6           0       -3.359399    1.218041   -0.366850
      2          6           0       -1.965969    1.216421   -0.368130
      3          6           0       -1.282479   -0.003899   -0.357690
      4          6           0       -1.965079   -1.224559   -0.334650
      5          6           0       -3.358509   -1.227109   -0.333270
      6          6           0       -4.033899   -0.004798   -0.351110
      7          1           0       -1.402999    2.147141   -0.377750
      8          1           0       -1.401490   -2.154809   -0.318680
      9          1           0       -3.924080   -2.155058   -0.318770
     10          6           0        3.225441   -1.218659    0.103940
     11          6           0        4.513041   -1.212039   -0.428830
     12          6           0        5.181201   -0.005720   -0.706510
     13          6           0        4.525081    1.204131   -0.432570
     14          6           0        3.234581    1.223411    0.101040
     15          6           0        2.604221    0.006641    0.359330
     16          1           0        2.713640   -2.151629    0.331550
     17          1           0        5.010740   -2.161880   -0.628620
     18          1           0        5.030491    2.148800   -0.634710
     19          1           0        2.731091    2.161661    0.325500
     20         16           0        0.955931    0.014731    1.051930
     21          8           0        0.667581    1.307791    1.708680
     22          8           0        0.668161   -1.261979    1.740230
     23          8           0        0.106781   -0.004299   -0.442240
     24          6           0        6.576351   -0.023720   -1.280400
     25          1           0        7.271331   -0.544800   -0.606120
     26          1           0        6.597941   -0.555430   -2.242660
     27          1           0        6.956651    0.991720   -1.443150
     28          1           0       -3.925629    2.145632   -0.377820
     29          7           0       -5.508709   -0.005398   -0.355770
     30          8           0       -6.080809   -1.093068   -0.343230
     31          8           0       -6.081599    1.081792   -0.372820
 ---------------------------------------------------------------------
 Rotational constants (GHZ):      1.0958947      0.1167986      0.1145995
 Leave Link  202 at Fri Nov 18 23:31:17 2016, MaxMem=  524288000 cpu:       0.0
 (Enter /home/ubuntu/g09/l301.exe)
 Standard basis: Aug-CC-pVDZ (5D, 7F)
 Ernie: Thresh=  0.10000D-02 Tol=  0.10000D-05 Strict=F.
 Ernie:  48 primitive shells out of 605 were deleted.
 There are   563 symmetry adapted basis functions of A   symmetry.
 Integral buffers will be    131072 words long.
 Raffenetti 2 integral format.
 Two-electron integral symmetry is turned on.
   563 basis functions,  1019 primitive gaussians,   603 cartesian basis functions
    76 alpha electrons       76 beta electrons
       nuclear repulsion energy      1616.2329198614 Hartrees.
 IExCor=  402 DFT=T Ex+Corr=B3LYP ExCW=0 ScaHFX=  0.200000
 ScaDFX=  0.800000  0.720000  1.000000  0.810000 ScalE2=  1.000000  1.000000
 IRadAn=      5 IRanWt=     -1 IRanGd=            0 ICorTp=0
 NAtoms=   31 NActive=   31 NUniq=   31 SFac= 1.00D+00 NAtFMM=   50 NAOKFM=F Big=F
 ------------------------------------------------------------------------------
 Polarizable Continuum Model (PCM)
 =================================
 Model                : C-PCM.
 Atomic radii         : UFF (Universal Force Field).
 Polarization charges : Total charges.
 Charge compensation  : None.
 Solution method      : Matrix inversion.
 Cavity type          : Scaled VdW (van der Waals Surface) (Alpha=1.100).
 Cavity algorithm     : GePol (No added spheres)
                        Default sphere list used, NSphG=   31.
                        Lebedev-Laikov grids with approx.  5.0 points / Ang**2.
                        Smoothing algorithm: Karplus/York (Gamma=1.0000).
                        Polarization charges: spherical gaussians, with
                                              point-specific exponents (IZeta= 3).
                        Self-potential: point-specific (ISelfS= 7).
                        Self-field    : sphere-specific E.n sum rule (ISelfD= 2).
 1st derivatives      : Analytical E(r).r(x)/FMM algorithm (CHGder, D1EAlg=3).
                        Cavity 1st derivative terms included.
 Solvent              : Water, Eps=  78.355300 Eps(inf)=   1.777849
 ------------------------------------------------------------------------------
 GePol: Number of generator spheres                  =      31
 GePol: Total number of spheres                      =      31
 GePol: Number of exposed spheres                    =      31 (100.00%)
 GePol: Number of points                             =    2648
 GePol: Average weight of points                     =       0.13
 GePol: Minimum weight of points                     =   0.22D-07
 GePol: Maximum weight of points                     =    0.20577
 GePol: Number of points with low weight             =     105
 GePol: Fraction of low-weight points (<1% of avg)   =       3.97%
 GePol: Cavity surface area                          =    347.983 Ang**2
 GePol: Cavity volume                                =    369.276 Ang**3
 Leave Link  301 at Fri Nov 18 23:31:17 2016, MaxMem=  524288000 cpu:       0.4
 (Enter /home/ubuntu/g09/l302.exe)
 NPDir=0 NMtPBC=     1 NCelOv=     1 NCel=       1 NClECP=     1 NCelD=      1
         NCelK=      1 NCelE2=     1 NClLst=     1 CellRange=     0.0.
 One-electron integrals computed using PRISM.
 NBasis=   563 RedAO= T  NBF=   563
 NBsUse=   563 1.00D-06 NBFU=   563
 Precomputing XC quadrature grid using
 IXCGrd= 2 IRadAn=           5 IRanWt=          -1 IRanGd=           0 AccXCQ= 0.00D+00.
 NRdTot=    2684 NPtTot=      726640 NUsed=      745844 NTot=      745876
 NSgBfM=   592   592   592   592   592 NAtAll=    31    31.
 Leave Link  302 at Fri Nov 18 23:31:18 2016, MaxMem=  524288000 cpu:       8.7
 (Enter /home/ubuntu/g09/l303.exe)
 DipDrv:  MaxL=1.
 Leave Link  303 at Fri Nov 18 23:31:18 2016, MaxMem=  524288000 cpu:       0.8
 (Enter /home/ubuntu/g09/l401.exe)
 Harris functional with IExCor=  402 diagonalized for initial guess.
 ExpMin= 2.97D-02 ExpMax= 1.11D+05 ExpMxC= 1.07D+03 IAcc=3 IRadAn=         5 AccDes= 0.00D+00
 HarFok:  IExCor=  402 AccDes= 0.00D+00 IRadAn=         5 IDoV= 1
 ScaDFX=  1.000000  1.000000  1.000000  1.000000
 FoFCou: FMM=F IPFlag=           0 FMFlag=      100000 FMFlg1=           0
         NFxFlg=           0 DoJE=T BraDBF=F KetDBF=T FulRan=T
         Omega=  0.000000  0.000000  1.000000  0.000000  0.000000 ICntrl=     500 IOpCl=  0
         NMat0=    1 NMatS0=    1 NMatT0=    0 NMatD0=    1 NMtDS0=    0 NMtDT0=    0
         I1Cent=           4 NGrid=           0.
 Petite list used in FoFCou.
 Harris En= -1331.05294460068    
 Initial guess orbital symmetries:
       Occupied  (A) (A) (A) (A) (A) (A) (A) (A) (A) (A) (A) (A)
                 (A) (A) (A) (A) (A) (A) (A) (A) (A) (A) (A) (A)
                 (A) (A) (A) (A) (A) (A) (A) (A) (A) (A) (A) (A)
                 (A) (A) (A) (A) (A) (A) (A) (A) (A) (A) (A) (A)
                 (A) (A) (A) (A) (A) (A) (A) (A) (A) (A) (A) (A)
                 (A) (A) (A) (A) (A) (A) (A) (A) (A) (A) (A) (A)
                 (A) (A) (A) (A)
       Virtual   (A) (A) (A) (A) (A) (A) (A) (A) (A) (A) (A) (A)
                 (A) (A) (A) (A) (A) (A) (A) (A) (A) (A) (A) (A)
                 (A) (A) (A) (A) (A) (A) (A) (A) (A) (A) (A) (A)
                 (A) (A) (A) (A) (A) (A) (A) (A) (A) (A) (A) (A)
                 (A) (A) (A) (A) (A) (A) (A) (A) (A) (A) (A) (A)
                 (A) (A) (A) (A) (A) (A) (A) (A) (A) (A) (A) (A)
                 (A) (A) (A) (A) (A) (A) (A) (A) (A) (A) (A) (A)
                 (A) (A) (A) (A) (A) (A) (A) (A) (A) (A) (A) (A)
                 (A) (A) (A) (A) (A) (A) (A) (A) (A) (A) (A) (A)
                 (A) (A) (A) (A) (A) (A) (A) (A) (A) (A) (A) (A)
                 (A) (A) (A) (A) (A) (A) (A) (A) (A) (A) (A) (A)
                 (A) (A) (A) (A) (A) (A) (A) (A) (A) (A) (A) (A)
                 (A) (A) (A) (A) (A) (A) (A) (A) (A) (A) (A) (A)
                 (A) (A) (A) (A) (A) (A) (A) (A) (A) (A) (A) (A)
                 (A) (A) (A) (A) (A) (A) (A) (A) (A) (A) (A) (A)
                 (A) (A) (A) (A) (A) (A) (A) (A) (A) (A) (A) (A)
                 (A) (A) (A) (A) (A) (A) (A) (A) (A) (A) (A) (A)
                 (A) (A) (A) (A) (A) (A) (A) (A) (A) (A) (A) (A)
                 (A) (A) (A) (A) (A) (A) (A) (A) (A) (A) (A) (A)
                 (A) (A) (A) (A) (A) (A) (A) (A) (A) (A) (A) (A)
                 (A) (A) (A) (A) (A) (A) (A) (A) (A) (A) (A) (A)
                 (A) (A) (A) (A) (A) (A) (A) (A) (A) (A) (A) (A)
                 (A) (A) (A) (A) (A) (A) (A) (A) (A) (A) (A) (A)
                 (A) (A) (A) (A) (A) (A) (A) (A) (A) (A) (A) (A)
                 (A) (A) (A) (A) (A) (A) (A) (A) (A) (A) (A) (A)
                 (A) (A) (A) (A) (A) (A) (A) (A) (A) (A) (A) (A)
                 (A) (A) (A) (A) (A) (A) (A) (A) (A) (A) (A) (A)
                 (A) (A) (A) (A) (A) (A) (A) (A) (A) (A) (A) (A)
                 (A) (A) (A) (A) (A) (A) (A) (A) (A) (A) (A) (A)
                 (A) (A) (A) (A) (A) (A) (A) (A) (A) (A) (A) (A)
                 (A) (A) (A) (A) (A) (A) (A) (A) (A) (A) (A) (A)
                 (A) (A) (A) (A) (A) (A) (A) (A) (A) (A) (A) (A)
                 (A) (A) (A) (A) (A) (A) (A) (A) (A) (A) (A) (A)
                 (A) (A) (A) (A) (A) (A) (A) (A) (A) (A) (A) (A)
                 (A) (A) (A) (A) (A) (A) (A) (A) (A) (A) (A) (A)
                 (A) (A) (A) (A) (A) (A) (A) (A) (A) (A) (A) (A)
                 (A) (A) (A) (A) (A) (A) (A) (A) (A) (A) (A) (A)
                 (A) (A) (A) (A) (A) (A) (A) (A) (A) (A) (A) (A)
                 (A) (A) (A) (A) (A) (A) (A) (A) (A) (A) (A) (A)
                 (A) (A) (A) (A) (A) (A) (A) (A) (A) (A) (A) (A)
                 (A) (A) (A) (A) (A) (A) (A)
 The electronic state of the initial guess is 1-A.
 Leave Link  401 at Fri Nov 18 23:31:29 2016, MaxMem=  524288000 cpu:      71.9
 (Enter /home/ubuntu/g09/l502.exe)
 Closed shell SCF:
 Requested convergence on RMS density matrix=1.00D-06 within1024 cycles.
 Requested convergence on MAX density matrix=1.00D-04.
 Requested convergence on             energy=1.00D-04.
 No special actions if energy rises.
 Using DIIS extrapolation, IDIIS=  1040.
 Integral symmetry usage will be decided dynamically.
       745552 words used for storage of precomputed grid.
 IEnd=     2899898 IEndB=     2899898 NGot=   524288000 MDV=   522802939
 LenX=   522802939 LenY=   522438727
 Fock matrices will be formed incrementally for  20 cycles.

 Cycle   1  Pass 1  IDiag  1:
 FoFCou: FMM=F IPFlag=           0 FMFlag=      100000 FMFlg1=           0
         NFxFlg=           0 DoJE=F BraDBF=F KetDBF=F FulRan=T
         Omega=  0.000000  0.000000  1.000000  0.000000  0.000000 ICntrl=       0 IOpCl=  0
         NMat0=    1 NMatS0=    1 NMatT0=    0 NMatD0=    1 NMtDS0=    0 NMtDT0=    0
         I1Cent=           0 NGrid=           0.
 Symmetry not used in FoFCou.
 E= -1330.41043484157    
 DIIS: error= 1.84D-02 at cycle   1 NSaved=   1.
 NSaved= 1 IEnMin= 1 EnMin= -1330.41043484157     IErMin= 1 ErrMin= 1.84D-02
 ErrMax= 1.84D-02 EMaxC= 1.00D-01 BMatC= 7.40D-01 BMatP= 7.40D-01
 IDIUse=3 WtCom= 8.16D-01 WtEn= 1.84D-01
 Coeff-Com:  0.100D+01
 Coeff-En:   0.100D+01
 Coeff:      0.100D+01
 Gap=     0.141 Goal=   None    Shift=    0.000
 GapD=    0.141 DampG=1.000 DampE=0.500 DampFc=0.5000 IDamp=-1.
 Damping current iteration by 5.00D-01
 RMSDP=4.67D-02 MaxDP=3.06D+00              OVMax= 3.33D-01

 Cycle   2  Pass 1  IDiag  1:
 RMSU=  9.61D-03    CP:  8.61D-01
 E= -1330.51448243965     Delta-E=       -0.104047598083 Rises=F Damp=T
 DIIS: error= 8.08D-03 at cycle   2 NSaved=   2.
 NSaved= 2 IEnMin= 2 EnMin= -1330.51448243965     IErMin= 2 ErrMin= 8.08D-03
 ErrMax= 8.08D-03 EMaxC= 1.00D-01 BMatC= 1.48D-01 BMatP= 7.40D-01
 IDIUse=3 WtCom= 9.19D-01 WtEn= 8.08D-02
 Coeff-Com:  0.279D+00 0.721D+00
 Coeff-En:   0.427D+00 0.573D+00
 Coeff:      0.291D+00 0.709D+00
 Gap=     0.143 Goal=   None    Shift=    0.000
 RMSDP=2.16D-02 MaxDP=1.72D+00 DE=-1.04D-01 OVMax= 2.23D-01

 Cycle   3  Pass 1  IDiag  1:
 RMSU=  5.15D-03    CP:  7.12D-01  1.02D+00
 E= -1331.00951036942     Delta-E=       -0.495027929765 Rises=F Damp=F
 DIIS: error= 4.90D-03 at cycle   3 NSaved=   3.
 NSaved= 3 IEnMin= 3 EnMin= -1331.00951036942     IErMin= 3 ErrMin= 4.90D-03
 ErrMax= 4.90D-03 EMaxC= 1.00D-01 BMatC= 5.26D-02 BMatP= 1.48D-01
 IDIUse=3 WtCom= 9.51D-01 WtEn= 4.90D-02
 Coeff-Com:  0.116D+00 0.398D+00 0.486D+00
 Coeff-En:   0.000D+00 0.000D+00 0.100D+01
 Coeff:      0.110D+00 0.379D+00 0.511D+00
 Gap=     0.170 Goal=   None    Shift=    0.000
 RMSDP=3.86D-03 MaxDP=2.67D-01 DE=-4.95D-01 OVMax= 5.80D-02

 Cycle   4  Pass 1  IDiag  1:
 RMSU=  1.76D-03    CP:  7.23D-01  1.03D+00  6.50D-01
 E= -1331.04982740726     Delta-E=       -0.040317037842 Rises=F Damp=F
 DIIS: error= 1.94D-03 at cycle   4 NSaved=   4.
 NSaved= 4 IEnMin= 4 EnMin= -1331.04982740726     IErMin= 4 ErrMin= 1.94D-03
 ErrMax= 1.94D-03 EMaxC= 1.00D-01 BMatC= 9.76D-03 BMatP= 5.26D-02
 IDIUse=3 WtCom= 9.81D-01 WtEn= 1.94D-02
 Coeff-Com:  0.202D-01 0.108D+00 0.312D+00 0.559D+00
 Coeff-En:   0.000D+00 0.000D+00 0.147D+00 0.853D+00
 Coeff:      0.198D-01 0.106D+00 0.309D+00 0.565D+00
 Gap=     0.163 Goal=   None    Shift=    0.000
 RMSDP=9.24D-04 MaxDP=5.81D-02 DE=-4.03D-02 OVMax= 1.79D-02

 Cycle   5  Pass 1  IDiag  1:
 RMSU=  4.33D-04    CP:  7.22D-01  9.95D-01  6.78D-01  8.05D-01
 E= -1331.05700717893     Delta-E=       -0.007179771678 Rises=F Damp=F
 DIIS: error= 8.63D-04 at cycle   5 NSaved=   5.
 NSaved= 5 IEnMin= 5 EnMin= -1331.05700717893     IErMin= 5 ErrMin= 8.63D-04
 ErrMax= 8.63D-04 EMaxC= 1.00D-01 BMatC= 9.84D-04 BMatP= 9.76D-03
 IDIUse=3 WtCom= 9.91D-01 WtEn= 8.63D-03
 Coeff-Com: -0.394D-03 0.199D-01 0.127D+00 0.328D+00 0.525D+00
 Coeff-En:   0.000D+00 0.000D+00 0.000D+00 0.248D-01 0.975D+00
 Coeff:     -0.391D-03 0.197D-01 0.126D+00 0.325D+00 0.529D+00
 Gap=     0.163 Goal=   None    Shift=    0.000
 RMSDP=3.77D-04 MaxDP=1.79D-02 DE=-7.18D-03 OVMax= 7.48D-03

 Cycle   6  Pass 1  IDiag  1:
 RMSU=  1.41D-04    CP:  7.20D-01  1.01D+00  6.88D-01  8.09D-01  7.67D-01
 E= -1331.05776035070     Delta-E=       -0.000753171761 Rises=F Damp=F
 DIIS: error= 2.58D-04 at cycle   6 NSaved=   6.
 NSaved= 6 IEnMin= 6 EnMin= -1331.05776035070     IErMin= 6 ErrMin= 2.58D-04
 ErrMax= 2.58D-04 EMaxC= 1.00D-01 BMatC= 1.07D-04 BMatP= 9.84D-04
 IDIUse=3 WtCom= 9.97D-01 WtEn= 2.58D-03
 Coeff-Com: -0.179D-02 0.306D-02 0.439D-01 0.129D+00 0.306D+00 0.520D+00
 Coeff-En:   0.000D+00 0.000D+00 0.000D+00 0.000D+00 0.469D-01 0.953D+00
 Coeff:     -0.179D-02 0.306D-02 0.438D-01 0.128D+00 0.305D+00 0.521D+00
 Gap=     0.163 Goal=   None    Shift=    0.000
 RMSDP=1.21D-04 MaxDP=7.20D-03 DE=-7.53D-04 OVMax= 3.01D-03

 Cycle   7  Pass 1  IDiag  1:
 RMSU=  6.58D-05    CP:  7.20D-01  1.01D+00  6.90D-01  8.22D-01  7.38D-01
                    CP:  7.78D-01
 E= -1331.05784566358     Delta-E=       -0.000085312880 Rises=F Damp=F
 DIIS: error= 6.25D-05 at cycle   7 NSaved=   7.
 NSaved= 7 IEnMin= 7 EnMin= -1331.05784566358     IErMin= 7 ErrMin= 6.25D-05
 ErrMax= 6.25D-05 EMaxC= 1.00D-01 BMatC= 7.28D-06 BMatP= 1.07D-04
 IDIUse=1 WtCom= 1.00D+00 WtEn= 0.00D+00
 Coeff-Com: -0.103D-02-0.515D-03 0.121D-01 0.399D-01 0.120D+00 0.281D+00
 Coeff-Com:  0.548D+00
 Coeff:     -0.103D-02-0.515D-03 0.121D-01 0.399D-01 0.120D+00 0.281D+00
 Coeff:      0.548D+00
 Gap=     0.163 Goal=   None    Shift=    0.000
 RMSDP=3.16D-05 MaxDP=1.66D-03 DE=-8.53D-05 OVMax= 7.75D-04

 Cycle   8  Pass 1  IDiag  1:
 RMSU=  1.87D-05    CP:  7.20D-01  1.01D+00  6.89D-01  8.24D-01  7.50D-01
                    CP:  7.87D-01  8.71D-01
 E= -1331.05785186656     Delta-E=       -0.000006202979 Rises=F Damp=F
 DIIS: error= 2.42D-05 at cycle   8 NSaved=   8.
 NSaved= 8 IEnMin= 8 EnMin= -1331.05785186656     IErMin= 8 ErrMin= 2.42D-05
 ErrMax= 2.42D-05 EMaxC= 1.00D-01 BMatC= 5.83D-07 BMatP= 7.28D-06
 IDIUse=1 WtCom= 1.00D+00 WtEn= 0.00D+00
 Coeff-Com: -0.374D-03-0.604D-03 0.212D-02 0.865D-02 0.355D-01 0.993D-01
 Coeff-Com:  0.285D+00 0.571D+00
 Coeff:     -0.374D-03-0.604D-03 0.212D-02 0.865D-02 0.355D-01 0.993D-01
 Coeff:      0.285D+00 0.571D+00
 Gap=     0.163 Goal=   None    Shift=    0.000
 RMSDP=1.22D-05 MaxDP=7.64D-04 DE=-6.20D-06 OVMax= 2.71D-04

 Cycle   9  Pass 1  IDiag  1:
 RMSU=  6.62D-06    CP:  7.20D-01  1.01D+00  6.89D-01  8.23D-01  7.55D-01
                    CP:  7.89D-01  8.42D-01  8.23D-01
 E= -1331.05785238547     Delta-E=       -0.000000518914 Rises=F Damp=F
 DIIS: error= 6.18D-06 at cycle   9 NSaved=   9.
 NSaved= 9 IEnMin= 9 EnMin= -1331.05785238547     IErMin= 9 ErrMin= 6.18D-06
 ErrMax= 6.18D-06 EMaxC= 1.00D-01 BMatC= 5.31D-08 BMatP= 5.83D-07
 IDIUse=1 WtCom= 1.00D+00 WtEn= 0.00D+00
 Coeff-Com: -0.463D-04-0.189D-03-0.341D-03-0.552D-03 0.250D-02 0.134D-01
 Coeff-Com:  0.678D-01 0.279D+00 0.639D+00
 Coeff:     -0.463D-04-0.189D-03-0.341D-03-0.552D-03 0.250D-02 0.134D-01
 Coeff:      0.678D-01 0.279D+00 0.639D+00
 Gap=     0.163 Goal=   None    Shift=    0.000
 RMSDP=6.90D-06 MaxDP=3.42D-04 DE=-5.19D-07 OVMax= 7.32D-05

 Cycle  10  Pass 1  IDiag  1:
 RMSU=  4.05D-06    CP:  7.20D-01  1.01D+00  6.89D-01  8.24D-01  7.57D-01
                    CP:  7.85D-01  8.56D-01  8.94D-01  1.06D+00
 E= -1331.05785243243     Delta-E=       -0.000000046958 Rises=F Damp=F
 DIIS: error= 1.20D-06 at cycle  10 NSaved=  10.
 NSaved=10 IEnMin=10 EnMin= -1331.05785243243     IErMin=10 ErrMin= 1.20D-06
 ErrMax= 1.20D-06 EMaxC= 1.00D-01 BMatC= 2.33D-09 BMatP= 5.31D-08
 IDIUse=1 WtCom= 1.00D+00 WtEn= 0.00D+00
 Coeff-Com: -0.114D-06-0.465D-04-0.218D-03-0.605D-03-0.656D-03 0.949D-03
 Coeff-Com:  0.132D-01 0.840D-01 0.258D+00 0.646D+00
 Coeff:     -0.114D-06-0.465D-04-0.218D-03-0.605D-03-0.656D-03 0.949D-03
 Coeff:      0.132D-01 0.840D-01 0.258D+00 0.646D+00
 Gap=     0.163 Goal=   None    Shift=    0.000
 RMSDP=5.51D-06 MaxDP=2.42D-04 DE=-4.70D-08 OVMax= 1.69D-05

 Cycle  11  Pass 1  IDiag  1:
 RMSU=  1.98D-06    CP:  7.20D-01  1.01D+00  6.89D-01  8.25D-01  7.58D-01
                    CP:  7.82D-01  8.61D-01  9.30D-01  1.29D+00  1.69D+00
 E= -1331.05785243241     Delta-E=        0.000000000020 Rises=F Damp=F
 DIIS: error= 3.81D-07 at cycle  11 NSaved=  11.
 NSaved=11 IEnMin=10 EnMin= -1331.05785243243     IErMin=11 ErrMin= 3.81D-07
 ErrMax= 3.81D-07 EMaxC= 1.00D-01 BMatC= 3.55D-10 BMatP= 2.33D-09
 IDIUse=1 WtCom= 1.00D+00 WtEn= 0.00D+00
 Coeff-Com:  0.573D-05-0.764D-06-0.745D-04-0.261D-03-0.737D-03-0.119D-02
 Coeff-Com: -0.164D-02 0.965D-02 0.516D-01 0.310D+00 0.632D+00
 Coeff:      0.573D-05-0.764D-06-0.745D-04-0.261D-03-0.737D-03-0.119D-02
 Coeff:     -0.164D-02 0.965D-02 0.516D-01 0.310D+00 0.632D+00
 Gap=     0.163 Goal=   None    Shift=    0.000
 RMSDP=6.83D-06 MaxDP=3.04D-04 DE= 2.05D-11 OVMax= 9.46D-06

 Cycle  12  Pass 1  IDiag  1:
 RMSU=  9.61D-07    CP:  7.20D-01  1.01D+00  6.89D-01  8.25D-01  7.59D-01
                    CP:  7.78D-01  8.64D-01  9.59D-01  1.56D+00  2.55D+00
                    CP:  2.22D+00
 E= -1331.05785243043     Delta-E=        0.000000001976 Rises=F Damp=F
 DIIS: error= 4.03D-07 at cycle  12 NSaved=  12.
 NSaved=12 IEnMin=10 EnMin= -1331.05785243243     IErMin=11 ErrMin= 3.81D-07
 ErrMax= 4.03D-07 EMaxC= 1.00D-01 BMatC= 4.27D-11 BMatP= 3.55D-10
 IDIUse=1 WtCom= 1.00D+00 WtEn= 0.00D+00
 Coeff-Com:  0.300D-05 0.218D-05-0.269D-04-0.104D-03-0.370D-03-0.700D-03
 Coeff-Com: -0.173D-02-0.492D-03 0.979D-02 0.122D+00 0.328D+00 0.544D+00
 Coeff:      0.300D-05 0.218D-05-0.269D-04-0.104D-03-0.370D-03-0.700D-03
 Coeff:     -0.173D-02-0.492D-03 0.979D-02 0.122D+00 0.328D+00 0.544D+00
 Gap=     0.163 Goal=   None    Shift=    0.000
 RMSDP=7.26D-06 MaxDP=3.33D-04 DE= 1.98D-09 OVMax= 2.04D-06

 Cycle  13  Pass 1  IDiag  1:
 RMSU=  2.18D-06    CP:  7.20D-01  1.01D+00  6.89D-01  8.25D-01  7.59D-01
                    CP:  7.73D-01  8.68D-01  9.87D-01  1.85D+00  3.00D+00
                    CP:  3.00D+00  2.24D+00
 E= -1331.05785242597     Delta-E=        0.000000004462 Rises=F Damp=F
 DIIS: error= 5.38D-07 at cycle  13 NSaved=  13.
 NSaved=13 IEnMin=10 EnMin= -1331.05785243243     IErMin=11 ErrMin= 3.81D-07
 ErrMax= 5.38D-07 EMaxC= 1.00D-01 BMatC= 2.63D-11 BMatP= 4.27D-11
 IDIUse=1 WtCom= 1.00D+00 WtEn= 0.00D+00
 Coeff-Com:  0.213D-05 0.174D-05-0.178D-04-0.709D-04-0.261D-03-0.494D-03
 Coeff-Com: -0.127D-02-0.727D-03 0.570D-02 0.836D-01 0.231D+00 0.430D+00
 Coeff-Com:  0.253D+00
 Coeff:      0.213D-05 0.174D-05-0.178D-04-0.709D-04-0.261D-03-0.494D-03
 Coeff:     -0.127D-02-0.727D-03 0.570D-02 0.836D-01 0.231D+00 0.430D+00
 Coeff:      0.253D+00
 Gap=     0.163 Goal=   None    Shift=    0.000
 RMSDP=4.66D-06 MaxDP=2.13D-04 DE= 4.46D-09 OVMax= 4.23D-07

 Cycle  14  Pass 1  IDiag  1:
 RMSU=  8.29D-07    CP:  7.20D-01  1.01D+00  6.89D-01  8.25D-01  7.60D-01
                    CP:  7.69D-01  8.71D-01  1.01D+00  2.03D+00  3.00D+00
                    CP:  3.00D+00  2.88D+00  2.26D+00
 E= -1331.05785242146     Delta-E=        0.000000004510 Rises=F Damp=F
 DIIS: error= 6.33D-07 at cycle  14 NSaved=  14.
 NSaved=14 IEnMin=10 EnMin= -1331.05785243243     IErMin=11 ErrMin= 3.81D-07
 ErrMax= 6.33D-07 EMaxC= 1.00D-01 BMatC= 3.22D-11 BMatP= 2.63D-11
 IDIUse=1 WtCom= 1.00D+00 WtEn= 0.00D+00
 Coeff-Com:  0.198D-05 0.300D-05-0.101D-04-0.490D-04-0.234D-03-0.472D-03
 Coeff-Com: -0.153D-02-0.308D-02-0.235D-02 0.601D-01 0.215D+00 0.681D+00
 Coeff-Com:  0.192D+01-0.187D+01
 Coeff:      0.198D-05 0.300D-05-0.101D-04-0.490D-04-0.234D-03-0.472D-03
 Coeff:     -0.153D-02-0.308D-02-0.235D-02 0.601D-01 0.215D+00 0.681D+00
 Coeff:      0.192D+01-0.187D+01
 Gap=     0.163 Goal=   None    Shift=    0.000
 RMSDP=2.06D-05 MaxDP=7.91D-04 DE= 4.51D-09 OVMax= 1.61D-06

 Cycle  15  Pass 1  IDiag  1:
 RMSU=  4.67D-06    CP:  7.20D-01  1.01D+00  6.89D-01  8.25D-01  7.55D-01
                    CP:  7.89D-01  8.51D-01  8.85D-01  1.32D+00  1.54D+00
                    CP:  3.00D+00  2.08D+00  1.09D-01 -3.00D+00
 E= -1331.05785243340     Delta-E=       -0.000000011946 Rises=F Damp=F
 DIIS: error= 3.97D-07 at cycle  15 NSaved=  15.
 NSaved=15 IEnMin=15 EnMin= -1331.05785243340     IErMin=11 ErrMin= 3.81D-07
 ErrMax= 3.97D-07 EMaxC= 1.00D-01 BMatC= 2.64D-11 BMatP= 2.63D-11
 IDIUse=1 WtCom= 1.00D+00 WtEn= 0.00D+00
 Coeff-Com:  0.114D-05 0.256D-05-0.117D-05-0.160D-04-0.128D-03-0.275D-03
 Coeff-Com: -0.109D-02-0.342D-02-0.667D-02 0.212D-01 0.118D+00 0.570D+00
 Coeff-Com:  0.236D+01-0.264D+01 0.581D+00
 Coeff:      0.114D-05 0.256D-05-0.117D-05-0.160D-04-0.128D-03-0.275D-03
 Coeff:     -0.109D-02-0.342D-02-0.667D-02 0.212D-01 0.118D+00 0.570D+00
 Coeff:      0.236D+01-0.264D+01 0.581D+00
 Gap=     0.163 Goal=   None    Shift=    0.000
 RMSDP=1.30D-05 MaxDP=5.37D-04 DE=-1.19D-08 OVMax= 2.02D-06

 Cycle  16  Pass 1  IDiag  1:
 RMSU=  9.16D-07    CP:  7.20D-01  1.01D+00  6.89D-01  8.24D-01  7.52D-01
                    CP:  8.01D-01  8.41D-01  8.13D-01  8.37D-01 -1.53D-01
                    CP:  1.99D+00  1.72D+00  8.04D-02 -3.00D+00  1.76D+00
 E= -1331.05785243724     Delta-E=       -0.000000003832 Rises=F Damp=F
 DIIS: error= 3.17D-07 at cycle  16 NSaved=  16.
 NSaved=16 IEnMin=16 EnMin= -1331.05785243724     IErMin=16 ErrMin= 3.17D-07
 ErrMax= 3.17D-07 EMaxC= 1.00D-01 BMatC= 1.26D-11 BMatP= 2.63D-11
 IDIUse=1 WtCom= 1.00D+00 WtEn= 0.00D+00
 Coeff-Com:  0.786D-06 0.176D-05-0.567D-07-0.899D-05-0.853D-04-0.189D-03
 Coeff-Com: -0.773D-03-0.264D-02-0.555D-02 0.112D-01 0.756D-01 0.413D+00
 Coeff-Com:  0.196D+01-0.245D+01 0.528D+00 0.466D+00
 Coeff:      0.786D-06 0.176D-05-0.567D-07-0.899D-05-0.853D-04-0.189D-03
 Coeff:     -0.773D-03-0.264D-02-0.555D-02 0.112D-01 0.756D-01 0.413D+00
 Coeff:      0.196D+01-0.245D+01 0.528D+00 0.466D+00
 Gap=     0.163 Goal=   None    Shift=    0.000
 RMSDP=9.55D-06 MaxDP=4.20D-04 DE=-3.83D-09 OVMax= 6.71D-07

 Cycle  17  Pass 1  IDiag  1:
 RMSU=  5.87D-07    CP:  7.20D-01  1.01D+00  6.89D-01  8.24D-01  7.51D-01
                    CP:  8.06D-01  8.39D-01  7.84D-01  4.69D-01 -1.35D+00
                    CP:  1.49D-01  6.88D-01  9.43D-02 -3.00D+00  1.68D+00
                    CP:  1.46D+00
 E= -1331.05785243918     Delta-E=       -0.000000001943 Rises=F Damp=F
 DIIS: error= 2.87D-07 at cycle  17 NSaved=  17.
 NSaved=17 IEnMin=17 EnMin= -1331.05785243918     IErMin=17 ErrMin= 2.87D-07
 ErrMax= 2.87D-07 EMaxC= 1.00D-01 BMatC= 6.22D-12 BMatP= 1.26D-11
 IDIUse=1 WtCom= 1.00D+00 WtEn= 0.00D+00
 Coeff-Com:  0.717D-06 0.160D-05-0.300D-06-0.893D-05-0.781D-04-0.170D-03
 Coeff-Com: -0.687D-03-0.227D-02-0.460D-02 0.121D-01 0.727D-01 0.378D+00
 Coeff-Com:  0.166D+01-0.196D+01 0.299D+00-0.924D-01 0.638D+00
 Coeff:      0.717D-06 0.160D-05-0.300D-06-0.893D-05-0.781D-04-0.170D-03
 Coeff:     -0.687D-03-0.227D-02-0.460D-02 0.121D-01 0.727D-01 0.378D+00
 Coeff:      0.166D+01-0.196D+01 0.299D+00-0.924D-01 0.638D+00
 Gap=     0.163 Goal=   None    Shift=    0.000
 RMSDP=5.29D-06 MaxDP=2.98D-04 DE=-1.94D-09 OVMax= 2.35D-07

 Cycle  18  Pass 1  IDiag  1:
 RMSU=  3.63D-07    CP:  7.20D-01  1.01D+00  6.89D-01  8.24D-01  7.52D-01
                    CP:  8.05D-01  8.42D-01  7.96D-01  3.90D-01 -1.49D+00
                    CP: -9.14D-01 -6.92D-01  2.72D-02 -3.00D+00  1.18D+00
                    CP:  5.80D-01  1.73D+00
 E= -1331.05785243965     Delta-E=       -0.000000000472 Rises=F Damp=F
 DIIS: error= 2.20D-07 at cycle  18 NSaved=  18.
 NSaved=18 IEnMin=18 EnMin= -1331.05785243965     IErMin=18 ErrMin= 2.20D-07
 ErrMax= 2.20D-07 EMaxC= 1.00D-01 BMatC= 2.89D-12 BMatP= 6.22D-12
 IDIUse=1 WtCom= 1.00D+00 WtEn= 0.00D+00
 Coeff-Com:  0.515D-06 0.133D-05 0.807D-06-0.371D-05-0.555D-04-0.128D-03
 Coeff-Com: -0.562D-03-0.207D-02-0.470D-02 0.523D-02 0.503D-01 0.303D+00
 Coeff-Com:  0.132D+01-0.146D+01 0.237D+00-0.178D+00 0.395D-01 0.693D+00
 Coeff:      0.515D-06 0.133D-05 0.807D-06-0.371D-05-0.555D-04-0.128D-03
 Coeff:     -0.562D-03-0.207D-02-0.470D-02 0.523D-02 0.503D-01 0.303D+00
 Coeff:      0.132D+01-0.146D+01 0.237D+00-0.178D+00 0.395D-01 0.693D+00
 Gap=     0.163 Goal=   None    Shift=    0.000
 RMSDP=4.28D-06 MaxDP=2.61D-04 DE=-4.72D-10 OVMax= 1.97D-07

 Cycle  19  Pass 1  IDiag  1:
 RMSU=  4.07D-07    CP:  7.20D-01  1.01D+00  6.89D-01  8.24D-01  7.53D-01
                    CP:  8.02D-01  8.45D-01  8.17D-01  4.58D-01 -1.11D+00
                    CP: -1.02D+00 -1.47D+00 -5.61D-02 -3.00D+00  7.82D-01
                    CP: -5.28D-01  1.84D+00  2.23D+00
 E= -1331.05785243848     Delta-E=        0.000000001171 Rises=F Damp=F
 DIIS: error= 1.48D-07 at cycle  19 NSaved=  19.
 NSaved=19 IEnMin=18 EnMin= -1331.05785243965     IErMin=19 ErrMin= 1.48D-07
 ErrMax= 1.48D-07 EMaxC= 1.00D-01 BMatC= 1.36D-12 BMatP= 2.89D-12
 IDIUse=1 WtCom= 1.00D+00 WtEn= 0.00D+00
 Coeff-Com:  0.323D-06 0.882D-06 0.121D-05-0.482D-06-0.326D-04-0.786D-04
 Coeff-Com: -0.369D-03-0.152D-02-0.368D-02 0.827D-03 0.278D-01 0.204D+00
 Coeff-Com:  0.965D+00-0.111D+01 0.253D+00 0.111D+00-0.449D+00 0.285D+00
 Coeff-Com:  0.716D+00
 Coeff:      0.323D-06 0.882D-06 0.121D-05-0.482D-06-0.326D-04-0.786D-04
 Coeff:     -0.369D-03-0.152D-02-0.368D-02 0.827D-03 0.278D-01 0.204D+00
 Coeff:      0.965D+00-0.111D+01 0.253D+00 0.111D+00-0.449D+00 0.285D+00
 Coeff:      0.716D+00
 Gap=     0.163 Goal=   None    Shift=    0.000
 RMSDP=3.11D-06 MaxDP=1.51D-04 DE= 1.17D-09 OVMax= 1.45D-07

 Cycle  20  Pass 1  IDiag  1:
 Restarting incremental Fock formation.
 E= -1331.05785244978     Delta-E=       -0.000000011296 Rises=F Damp=F
 DIIS: error= 9.67D-07 at cycle  20 NSaved=  20.
 NSaved=20 IEnMin=20 EnMin= -1331.05785244978     IErMin=19 ErrMin= 1.48D-07
 ErrMax= 9.67D-07 EMaxC= 1.00D-01 BMatC= 3.15D-10 BMatP= 1.36D-12
 IDIUse=1 WtCom= 1.00D+00 WtEn= 0.00D+00
 Coeff-Com:  0.322D-06 0.882D-06 0.122D-05-0.446D-06-0.325D-04-0.785D-04
 Coeff-Com: -0.369D-03-0.152D-02-0.369D-02 0.768D-03 0.277D-01 0.204D+00
 Coeff-Com:  0.967D+00-0.111D+01 0.256D+00 0.118D+00-0.458D+00 0.280D+00
 Coeff-Com:  0.724D+00-0.201D-02
 Coeff:      0.322D-06 0.882D-06 0.122D-05-0.446D-06-0.325D-04-0.785D-04
 Coeff:     -0.369D-03-0.152D-02-0.369D-02 0.768D-03 0.277D-01 0.204D+00
 Coeff:      0.967D+00-0.111D+01 0.256D+00 0.118D+00-0.458D+00 0.280D+00
 Coeff:      0.724D+00-0.201D-02
 Gap=     0.163 Goal=   None    Shift=    0.000
 RMSDP=6.24D-08 MaxDP=2.87D-06 DE=-1.13D-08 OVMax= 5.75D-09

 Error on total polarization charges =  0.01900
 SCF Done:  E(RB3LYP) =  -1331.05785245     A.U. after   20 cycles
             Convg  =    0.6236D-07             -V/T =  2.0052
 KE= 1.324131025392D+03 PE=-6.353969408525D+03 EE= 2.082547610822D+03
 Leave Link  502 at Fri Nov 18 23:57:27 2016, MaxMem=  524288000 cpu:   10904.7
 (Enter /home/ubuntu/g09/l601.exe)
 Copying SCF densities to generalized density rwf, IOpCl= 0 IROHF=0.

 **********************************************************************

            Population analysis using the SCF density.

 **********************************************************************

 Orbital symmetries:
       Occupied  (A) (A) (A) (A) (A) (A) (A) (A) (A) (A) (A) (A)
                 (A) (A) (A) (A) (A) (A) (A) (A) (A) (A) (A) (A)
                 (A) (A) (A) (A) (A) (A) (A) (A) (A) (A) (A) (A)
                 (A) (A) (A) (A) (A) (A) (A) (A) (A) (A) (A) (A)
                 (A) (A) (A) (A) (A) (A) (A) (A) (A) (A) (A) (A)
                 (A) (A) (A) (A) (A) (A) (A) (A) (A) (A) (A) (A)
                 (A) (A) (A) (A)
       Virtual   (A) (A) (A) (A) (A) (A) (A) (A) (A) (A) (A) (A)
                 (A) (A) (A) (A) (A) (A) (A) (A) (A) (A) (A) (A)
                 (A) (A) (A) (A) (A) (A) (A) (A) (A) (A) (A) (A)
                 (A) (A) (A) (A) (A) (A) (A) (A) (A) (A) (A) (A)
                 (A) (A) (A) (A) (A) (A) (A) (A) (A) (A) (A) (A)
                 (A) (A) (A) (A) (A) (A) (A) (A) (A) (A) (A) (A)
                 (A) (A) (A) (A) (A) (A) (A) (A) (A) (A) (A) (A)
                 (A) (A) (A) (A) (A) (A) (A) (A) (A) (A) (A) (A)
                 (A) (A) (A) (A) (A) (A) (A) (A) (A) (A) (A) (A)
                 (A) (A) (A) (A) (A) (A) (A) (A) (A) (A) (A) (A)
                 (A) (A) (A) (A) (A) (A) (A) (A) (A) (A) (A) (A)
                 (A) (A) (A) (A) (A) (A) (A) (A) (A) (A) (A) (A)
                 (A) (A) (A) (A) (A) (A) (A) (A) (A) (A) (A) (A)
                 (A) (A) (A) (A) (A) (A) (A) (A) (A) (A) (A) (A)
                 (A) (A) (A) (A) (A) (A) (A) (A) (A) (A) (A) (A)
                 (A) (A) (A) (A) (A) (A) (A) (A) (A) (A) (A) (A)
                 (A) (A) (A) (A) (A) (A) (A) (A) (A) (A) (A) (A)
                 (A) (A) (A) (A) (A) (A) (A) (A) (A) (A) (A) (A)
                 (A) (A) (A) (A) (A) (A) (A) (A) (A) (A) (A) (A)
                 (A) (A) (A) (A) (A) (A) (A) (A) (A) (A) (A) (A)
                 (A) (A) (A) (A) (A) (A) (A) (A) (A) (A) (A) (A)
                 (A) (A) (A) (A) (A) (A) (A) (A) (A) (A) (A) (A)
                 (A) (A) (A) (A) (A) (A) (A) (A) (A) (A) (A) (A)
                 (A) (A) (A) (A) (A) (A) (A) (A) (A) (A) (A) (A)
                 (A) (A) (A) (A) (A) (A) (A) (A) (A) (A) (A) (A)
                 (A) (A) (A) (A) (A) (A) (A) (A) (A) (A) (A) (A)
                 (A) (A) (A) (A) (A) (A) (A) (A) (A) (A) (A) (A)
                 (A) (A) (A) (A) (A) (A) (A) (A) (A) (A) (A) (A)
                 (A) (A) (A) (A) (A) (A) (A) (A) (A) (A) (A) (A)
                 (A) (A) (A) (A) (A) (A) (A) (A) (A) (A) (A) (A)
                 (A) (A) (A) (A) (A) (A) (A) (A) (A) (A) (A) (A)
                 (A) (A) (A) (A) (A) (A) (A) (A) (A) (A) (A) (A)
                 (A) (A) (A) (A) (A) (A) (A) (A) (A) (A) (A) (A)
                 (A) (A) (A) (A) (A) (A) (A) (A) (A) (A) (A) (A)
                 (A) (A) (A) (A) (A) (A) (A) (A) (A) (A) (A) (A)
                 (A) (A) (A) (A) (A) (A) (A) (A) (A) (A) (A) (A)
                 (A) (A) (A) (A) (A) (A) (A) (A) (A) (A) (A) (A)
                 (A) (A) (A) (A) (A) (A) (A) (A) (A) (A) (A) (A)
                 (A) (A) (A) (A) (A) (A) (A) (A) (A) (A) (A) (A)
                 (A) (A) (A) (A) (A) (A) (A) (A) (A) (A) (A) (A)
                 (A) (A) (A) (A) (A) (A) (A)
 The electronic state is 1-A.
 Alpha  occ. eigenvalues --  -89.15637 -19.22021 -19.20230 -19.20229 -19.18115
 Alpha  occ. eigenvalues --  -19.18112 -14.58931 -10.28458 -10.26492 -10.24748
 Alpha  occ. eigenvalues --  -10.23031 -10.23029 -10.22582 -10.22465 -10.22441
 Alpha  occ. eigenvalues --  -10.22336 -10.22334 -10.21141 -10.21134 -10.19206
 Alpha  occ. eigenvalues --   -8.18467  -6.14924  -6.14764  -6.14581  -1.25188
 Alpha  occ. eigenvalues --   -1.15695  -1.07934  -1.07021  -1.03726  -0.90413
 Alpha  occ. eigenvalues --   -0.89393  -0.82583  -0.81000  -0.78862  -0.77727
 Alpha  occ. eigenvalues --   -0.74571  -0.71027  -0.67117  -0.65342  -0.63899
 Alpha  occ. eigenvalues --   -0.61757  -0.59993  -0.58142  -0.56994  -0.55486
 Alpha  occ. eigenvalues --   -0.55028  -0.54280  -0.51156  -0.49980  -0.49889
 Alpha  occ. eigenvalues --   -0.48023  -0.47957  -0.47523  -0.46046  -0.45885
 Alpha  occ. eigenvalues --   -0.44917  -0.43502  -0.42995  -0.40697  -0.39952
 Alpha  occ. eigenvalues --   -0.39853  -0.38958  -0.38287  -0.37318  -0.37306
 Alpha  occ. eigenvalues --   -0.36595  -0.34831  -0.34599  -0.33935  -0.33647
 Alpha  occ. eigenvalues --   -0.32366  -0.31732  -0.29046  -0.28692  -0.28285
 Alpha  occ. eigenvalues --   -0.27845
 Alpha virt. eigenvalues --   -0.11536  -0.06594  -0.04557  -0.04004  -0.03127
 Alpha virt. eigenvalues --   -0.01415  -0.00344   0.00142   0.00596   0.01143
 Alpha virt. eigenvalues --    0.01570   0.02004   0.02683   0.03077   0.03229
 Alpha virt. eigenvalues --    0.03400   0.03916   0.04779   0.04819   0.05292
 Alpha virt. eigenvalues --    0.05524   0.05728   0.06825   0.07170   0.07443
 Alpha virt. eigenvalues --    0.07583   0.07980   0.08430   0.08683   0.08775
 Alpha virt. eigenvalues --    0.09364   0.09437   0.09489   0.09750   0.10014
 Alpha virt. eigenvalues --    0.10170   0.10384   0.10538   0.10754   0.10808
 Alpha virt. eigenvalues --    0.11006   0.11328   0.11806   0.11897   0.12297
 Alpha virt. eigenvalues --    0.12421   0.12832   0.13170   0.13179   0.13437
 Alpha virt. eigenvalues --    0.13532   0.14133   0.14383   0.14659   0.14885
 Alpha virt. eigenvalues --    0.15128   0.15337   0.15437   0.15883   0.16724
 Alpha virt. eigenvalues --    0.16985   0.17461   0.17656   0.18265   0.18558
 Alpha virt. eigenvalues --    0.18781   0.18998   0.19409   0.19688   0.20091
 Alpha virt. eigenvalues --    0.20428   0.20686   0.21422   0.21716   0.22128
 Alpha virt. eigenvalues --    0.22288   0.22641   0.22877   0.23284   0.23483
 Alpha virt. eigenvalues --    0.23639   0.24228   0.24355   0.24584   0.24701
 Alpha virt. eigenvalues --    0.25266   0.25355   0.25815   0.26014   0.26302
 Alpha virt. eigenvalues --    0.26443   0.27035   0.27215   0.27496   0.27670
 Alpha virt. eigenvalues --    0.27951   0.28203   0.28645   0.28834   0.29110
 Alpha virt. eigenvalues --    0.29413   0.29630   0.29945   0.30392   0.30591
 Alpha virt. eigenvalues --    0.30879   0.31362   0.31767   0.31910   0.32180
 Alpha virt. eigenvalues --    0.32483   0.32673   0.33046   0.33132   0.33714
 Alpha virt. eigenvalues --    0.33967   0.34235   0.34533   0.34683   0.35145
 Alpha virt. eigenvalues --    0.35443   0.35811   0.35993   0.36198   0.36969
 Alpha virt. eigenvalues --    0.37249   0.37590   0.38193   0.38993   0.39382
 Alpha virt. eigenvalues --    0.39692   0.40756   0.41050   0.41634   0.41991
 Alpha virt. eigenvalues --    0.42233   0.43092   0.43421   0.43508   0.43706
 Alpha virt. eigenvalues --    0.43779   0.44161   0.44276   0.44924   0.45761
 Alpha virt. eigenvalues --    0.45934   0.46448   0.47690   0.47955   0.48369
 Alpha virt. eigenvalues --    0.48883   0.49369   0.49502   0.50015   0.51158
 Alpha virt. eigenvalues --    0.51366   0.51977   0.52181   0.52507   0.52613
 Alpha virt. eigenvalues --    0.53432   0.54120   0.54397   0.54928   0.55226
 Alpha virt. eigenvalues --    0.55621   0.55998   0.56633   0.56823   0.57235
 Alpha virt. eigenvalues --    0.57387   0.57938   0.58323   0.58714   0.59263
 Alpha virt. eigenvalues --    0.59778   0.59870   0.60654   0.60822   0.61370
 Alpha virt. eigenvalues --    0.61713   0.62122   0.62474   0.62673   0.62948
 Alpha virt. eigenvalues --    0.63113   0.63482   0.63703   0.64229   0.64566
 Alpha virt. eigenvalues --    0.64725   0.64950   0.66182   0.66638   0.66740
 Alpha virt. eigenvalues --    0.67389   0.67555   0.68168   0.68976   0.69773
 Alpha virt. eigenvalues --    0.70515   0.71031   0.71281   0.71829   0.72266
 Alpha virt. eigenvalues --    0.72665   0.72920   0.73243   0.73579   0.73958
 Alpha virt. eigenvalues --    0.74899   0.75025   0.75310   0.75494   0.76005
 Alpha virt. eigenvalues --    0.76519   0.76774   0.77735   0.78369   0.78509
 Alpha virt. eigenvalues --    0.78796   0.79010   0.80595   0.81127   0.82149
 Alpha virt. eigenvalues --    0.82378   0.82958   0.83686   0.84629   0.85429
 Alpha virt. eigenvalues --    0.86043   0.87054   0.87611   0.88539   0.89459
 Alpha virt. eigenvalues --    0.90013   0.90310   0.91798   0.92702   0.92736
 Alpha virt. eigenvalues --    0.92878   0.93429   0.94092   0.94594   0.95286
 Alpha virt. eigenvalues --    0.95940   0.96525   0.96832   0.97416   0.97909
 Alpha virt. eigenvalues --    0.99630   1.00353   1.01071   1.01661   1.02057
 Alpha virt. eigenvalues --    1.02277   1.03399   1.03921   1.04905   1.06362
 Alpha virt. eigenvalues --    1.06531   1.06758   1.07153   1.07990   1.08227
 Alpha virt. eigenvalues --    1.09237   1.10470   1.11052   1.13055   1.13132
 Alpha virt. eigenvalues --    1.14318   1.15096   1.15588   1.16181   1.17362
 Alpha virt. eigenvalues --    1.18261   1.19369   1.19563   1.20519   1.21666
 Alpha virt. eigenvalues --    1.22879   1.24098   1.25488   1.26409   1.27204
 Alpha virt. eigenvalues --    1.28715   1.29507   1.29560   1.30379   1.30656
 Alpha virt. eigenvalues --    1.31075   1.31514   1.32215   1.32349   1.33193
 Alpha virt. eigenvalues --    1.34276   1.34621   1.35207   1.35549   1.36151
 Alpha virt. eigenvalues --    1.36628   1.37481   1.37617   1.39079   1.39865
 Alpha virt. eigenvalues --    1.40174   1.40660   1.42544   1.42847   1.44028
 Alpha virt. eigenvalues --    1.44328   1.44894   1.45193   1.45955   1.46439
 Alpha virt. eigenvalues --    1.46665   1.47334   1.47537   1.47832   1.48170
 Alpha virt. eigenvalues --    1.48935   1.49238   1.49364   1.49713   1.51001
 Alpha virt. eigenvalues --    1.52036   1.52520   1.53542   1.54825   1.55306
 Alpha virt. eigenvalues --    1.56223   1.57037   1.57641   1.58137   1.60140
 Alpha virt. eigenvalues --    1.60818   1.61936   1.62380   1.63208   1.63308
 Alpha virt. eigenvalues --    1.63960   1.64743   1.65317   1.65778   1.66217
 Alpha virt. eigenvalues --    1.67804   1.68422   1.68695   1.70353   1.70540
 Alpha virt. eigenvalues --    1.71151   1.71772   1.71954   1.72796   1.73445
 Alpha virt. eigenvalues --    1.75358   1.76370   1.77474   1.78970   1.79240
 Alpha virt. eigenvalues --    1.79913   1.81027   1.81949   1.83169   1.84710
 Alpha virt. eigenvalues --    1.84993   1.85721   1.87043   1.87415   1.87486
 Alpha virt. eigenvalues --    1.88308   1.89338   1.90771   1.91495   1.92238
 Alpha virt. eigenvalues --    1.92592   1.93830   1.95083   1.95522   1.96085
 Alpha virt. eigenvalues --    1.97987   1.98226   1.98505   1.99087   2.00066
 Alpha virt. eigenvalues --    2.01369   2.01998   2.03152   2.03531   2.04757
 Alpha virt. eigenvalues --    2.05859   2.06591   2.07240   2.07749   2.08196
 Alpha virt. eigenvalues --    2.09101   2.10130   2.10943   2.11637   2.11990
 Alpha virt. eigenvalues --    2.12410   2.15797   2.16352   2.17772   2.18235
 Alpha virt. eigenvalues --    2.19370   2.21082   2.21530   2.24318   2.24930
 Alpha virt. eigenvalues --    2.25367   2.27203   2.30640   2.31979   2.33798
 Alpha virt. eigenvalues --    2.35181   2.36745   2.39099   2.40498   2.41280
 Alpha virt. eigenvalues --    2.42777   2.43724   2.44896   2.46387   2.49602
 Alpha virt. eigenvalues --    2.50143   2.51206   2.53170   2.53860   2.56876
 Alpha virt. eigenvalues --    2.58401   2.62250   2.64799   2.65697   2.66083
 Alpha virt. eigenvalues --    2.69255   2.70189   2.72393   2.74650   2.78224
 Alpha virt. eigenvalues --    2.78356   2.80164   2.88988   2.92057   2.95757
 Alpha virt. eigenvalues --    2.97046   3.01051   3.01305   3.02102   3.12223
 Alpha virt. eigenvalues --    3.14500   3.23590   3.26857   3.27142   3.27597
 Alpha virt. eigenvalues --    3.28819   3.29857   3.30098   3.32491   3.34030
 Alpha virt. eigenvalues --    3.35958   3.37047   3.37305   3.37676   3.37729
 Alpha virt. eigenvalues --    3.40667   3.40955   3.42854   3.43269   3.44132
 Alpha virt. eigenvalues --    3.46017   3.48011   3.48443   3.50444   3.53577
 Alpha virt. eigenvalues --    3.55086   3.58680   3.59086   3.59688   3.61705
 Alpha virt. eigenvalues --    3.71796   3.74210   3.81186   3.82054   4.09903
 Alpha virt. eigenvalues --    4.37826   4.55198
          Condensed to atoms (all electrons):
              1          2          3          4          5          6
     1  C   20.598845  -8.953353   5.162014  -6.794523   3.639264  -7.476556
     2  C   -8.953353  20.390906  -8.142169   4.466118  -6.803122   5.254107
     3  C    5.162014  -8.142169  18.055326  -8.129666   5.146065  -6.266390
     4  C   -6.794523   4.466118  -8.129666  20.262338  -8.863201   5.228040
     5  C    3.639264  -6.803122   5.146065  -8.863201  20.523769  -7.475445
     6  C   -7.476556   5.254107  -6.266390   5.228040  -7.475445  15.558051
     7  H    0.849842  -2.843954   1.617598   0.142985   0.211234  -0.885419
     8  H    0.209577   0.145229   1.583681  -2.817431   0.845348  -0.878075
     9  H   -0.009354   0.216370  -0.683532   1.219406  -2.829026   1.362434
    10  C    0.006507   0.321084  -0.053784  -0.338118  -0.031825  -0.006692
    11  C    0.009005   0.093996   0.168717  -0.163192  -0.037578  -0.001991
    12  C   -0.009363  -0.017847  -0.052527   0.031557   0.002167  -0.001013
    13  C   -0.029568  -0.131626   0.168190   0.062718   0.002134  -0.000666
    14  C   -0.031033  -0.299729  -0.144737   0.325021   0.005167  -0.008299
    15  C   -0.056574   0.124419  -0.298054   0.264273  -0.026081   0.065226
    16  H    0.003113   0.006158   0.050532  -0.046280   0.008270  -0.003335
    17  H    0.000175   0.001263  -0.001316   0.000517  -0.001506   0.000116
    18  H   -0.001128   0.001095   0.001917  -0.000764  -0.000110   0.000192
    19  H    0.010045  -0.042697   0.048356   0.005466   0.002255  -0.002610
    20  S    0.006461   0.194033  -0.452541   0.097288  -0.020125   0.065730
    21  O   -0.029859  -0.161984   0.308080   0.003683   0.021381  -0.025502
    22  O    0.018134  -0.004752   0.313617  -0.156084  -0.026850  -0.024781
    23  O   -0.260381   0.615069  -1.444938   0.619058  -0.258288   0.269082
    24  C   -0.000814  -0.003517  -0.008895   0.006272   0.000461  -0.000013
    25  H   -0.000077  -0.000225  -0.000122   0.000312   0.000025   0.000008
    26  H   -0.000037  -0.000325  -0.000445   0.000398   0.000073  -0.000007
    27  H    0.000094   0.000652  -0.000976  -0.000093  -0.000038   0.000001
    28  H   -2.838325   1.231126  -0.691747   0.218882  -0.012115   1.367779
    29  N    0.434483  -0.338227   0.333969  -0.337834   0.434021  -1.054187
    30  O    0.077724  -0.078298   0.018011  -0.160105   0.073697   0.185268
    31  O    0.073547  -0.161378   0.017245  -0.077252   0.078180   0.185820
              7          8          9         10         11         12
     1  C    0.849842   0.209577  -0.009354   0.006507   0.009005  -0.009363
     2  C   -2.843954   0.145229   0.216370   0.321084   0.093996  -0.017847
     3  C    1.617598   1.583681  -0.683532  -0.053784   0.168717  -0.052527
     4  C    0.142985  -2.817431   1.219406  -0.338118  -0.163192   0.031557
     5  C    0.211234   0.845348  -2.829026  -0.031825  -0.037578   0.002167
     6  C   -0.885419  -0.878075   1.362434  -0.006692  -0.001991  -0.001013
     7  H    3.187687  -0.014100   0.014443  -0.046200   0.000828  -0.000200
     8  H   -0.014100   3.192165  -0.242809   0.045163   0.035465  -0.000935
     9  H    0.014443  -0.242809   3.007924  -0.003121  -0.000861  -0.000207
    10  C   -0.046200   0.045163  -0.003121  31.520379  -9.883900   3.395406
    11  C    0.000828   0.035465  -0.000861  -9.883900  27.263116  -7.871683
    12  C   -0.000200  -0.000935  -0.000207   3.395406  -7.871683  19.053713
    13  C    0.035370   0.001714  -0.000071  -7.921241   2.197443  -7.975544
    14  C    0.046754  -0.043702   0.001582  -0.752704  -7.878120   5.102828
    15  C   -0.054001  -0.057563   0.000134  -8.826786   2.785246  -7.095630
    16  H   -0.002884   0.002241   0.000190  -3.546393   1.494145  -0.787824
    17  H    0.000200   0.000497  -0.000031   1.445920  -2.918242   1.280964
    18  H    0.000256   0.000130  -0.000003   0.190463   0.128202   1.900164
    19  H    0.003252  -0.002488   0.000038   0.127682   0.145836  -0.974923
    20  S   -0.001718   0.000495   0.004669  -0.076339  -0.169943   0.013076
    21  O   -0.007129  -0.003676   0.000769  -0.108427   0.012492  -0.011424
    22  O   -0.003408  -0.008112   0.001063   0.032778  -0.099707  -0.024777
    23  O   -0.159951  -0.157322  -0.003643  -0.028487   0.037897  -0.011697
    24  C    0.000581   0.000674  -0.000031   0.065207  -0.228310  -0.181844
    25  H    0.000025   0.000027  -0.000002   0.027169  -0.001677   0.094604
    26  H    0.000002   0.000012  -0.000001   0.009502   0.030675   0.040713
    27  H    0.000003   0.000009   0.000000  -0.163935  -0.290409   0.360382
    28  H   -0.241916   0.014507  -0.026674   0.001931   0.000053  -0.000238
    29  N    0.023837   0.023465  -0.138839   0.000181   0.000002   0.000009
    30  O   -0.001689  -0.004989  -0.029961  -0.000055  -0.000004   0.000000
    31  O   -0.004978  -0.001669  -0.011957   0.000011   0.000001  -0.000001
             13         14         15         16         17         18
     1  C   -0.029568  -0.031033  -0.056574   0.003113   0.000175  -0.001128
     2  C   -0.131626  -0.299729   0.124419   0.006158   0.001263   0.001095
     3  C    0.168190  -0.144737  -0.298054   0.050532  -0.001316   0.001917
[...]
 193,-0.00000110,0.,-0.00000033,0.00000041,0.00000135,-0.00000004,0.000
 00015,-0.00057834,-0.00003632,0.00002627,0.00027846,-0.00001379,0.0005
 4137,0.01056117,-0.00777177,0.00857524,0.00104318,0.00005464,-0.000928
 37,-0.00002751,-0.00018531,-0.00084657,0.00035400,-0.00030027,-0.00019
 871,-0.00001407,0.00001437,0.00005490,-0.00021478,-0.00001031,0.000010
 87,0.00016393,-0.00004167,0.00025345,0.00011976,-0.00001404,0.00003656
 ,-0.00036346,-0.00002601,0.00011848,0.00008608,-0.00002869,-0.00002286
 ,0.00005669,0.00004239,-0.00002788,0.00014125,0.00000235,0.00002426,-0
 .10190463,0.08202233,-0.14266087,0.10853931,-0.08869670,0.15496994,0.0
 0001020,0.00001110,0.00000368,-0.00003773,-0.00000413,-0.00000452,0.00
 013043,-0.00000221,-0.00004310,-0.00003907,0.00000519,-0.00000236,0.00
 000954,-0.00001213,0.00000271,-0.00003557,-0.00000016,0.00000141,0.000
 00229,-0.00000317,0.00000122,0.00000258,0.00000327,0.,-0.00000366,0.00
 000022,0.00000006,0.00019290,0.00004548,-0.00095960,0.00022517,0.00066
 316,-0.00054951,-0.00249264,0.01596424,0.02841868,-0.00288377,-0.00109
 751,0.00076772,-0.00081811,0.00064655,-0.00121010,-0.00075578,0.000246
 36,0.00047643,0.00004911,-0.00002343,0.00008439,0.00027498,-0.00038927
 ,0.00027905,0.00017408,0.00003714,0.00047308,-0.00019986,0.00001103,0.
 00017179,0.00125036,0.00001274,-0.00024240,-0.00025415,0.00012224,0.00
 009876,-0.00026237,-0.00015514,0.00010306,-0.00036104,-0.00000479,-0.0
 0002844,-0.04177945,-0.00245865,0.00125488,-0.00015155,-0.01003907,-0.
 01675337,0.04848193,0.00000506,0.00000508,0.00000221,-0.00001962,-0.00
 000187,-0.00000018,0.00003999,-0.00000815,-0.00004119,-0.00002130,0.00
 000373,0.00000057,0.00000414,-0.00000700,0.00000275,-0.00001585,0.0000
 0002,-0.00000017,0.00000069,-0.00000062,-0.00000054,0.00000134,0.00000
 072,-0.00000134,-0.00000183,0.00000037,0.00000027,0.00155645,-0.000407
 36,-0.00037043,-0.00209825,-0.00051398,0.00090960,0.00232940,-0.000825
 83,0.00016978,0.00088056,0.00033885,-0.00030974,0.00013612,-0.00035484
 ,0.00030683,-0.00076270,0.00079043,0.00040888,0.00004587,-0.00001326,0
 .00000297,-0.00016615,-0.00006207,-0.00026107,-0.00011975,0.00024495,-
 0.00031166,0.00004766,0.00000088,-0.00005369,0.00056755,0.00005707,-0.
 00031465,-0.00006859,0.00005078,0.00002882,-0.00004595,-0.00005041,0.0
 0002334,-0.00021931,-0.00000273,-0.00000846,-0.00292586,-0.10559657,-0
 .11279719,-0.00019450,0.00763259,0.01421533,0.00046353,0.11079862,-0.0
 0000551,-0.00000705,-0.00000163,0.00002225,0.00000180,0.00000118,-0.00
 007649,-0.00000767,0.00002220,0.00001967,-0.00000190,-0.00000013,-0.00
 000573,0.00000655,-0.00000103,0.00002003,-0.00000003,-0.00000042,-0.00
 000159,0.00000141,-0.00000014,-0.00000055,-0.00000138,0.00000087,0.000
 00165,-0.00000015,-0.00000017,0.00044861,-0.00000201,0.00040266,0.0000
 7596,-0.00065545,0.00133669,0.00045338,-0.00502163,-0.00907123,0.00086
 654,0.00103018,-0.00063910,0.00000709,-0.00033028,0.00034740,0.0002049
 3,0.00019092,-0.00024812,0.00001897,0.00000183,-0.00004767,-0.00001155
 ,0.00040870,-0.00052421,-0.00007954,0.00000815,-0.00005533,0.00010234,
 0.00000343,-0.00002197,-0.00066107,0.00003721,0.00011201,0.00013990,-0
 .00006683,-0.00004361,0.00014431,0.00007279,-0.00005943,0.00019452,0.0
 0000621,0.00002335,0.00149804,-0.11255464,-0.24659680,-0.00024335,-0.0
 0981171,-0.01723741,-0.00264554,0.12383923,0.26704598,0.00000260,0.000
 00897,0.00000131,-0.00001656,-0.00000077,0.00000344,0.00006926,-0.0000
 0918,-0.00002695,-0.00002391,0.00000502,-0.00000093,0.00000704,-0.0000
 0676,0.00000210,-0.00001998,-0.00000299,0.00000015,0.00000257,-0.00000
 162,-0.00000194,0.00000067,0.00000050,0.00000028,-0.00000160,0.0000004
 5,0.00000013,-0.00000958,-0.00161452,0.00016117,-0.00512381,0.00146403
 ,0.00275762,-0.01078058,-0.02921720,0.00361467,0.00121075,-0.00162594,
 -0.00068319,0.00010434,0.00005449,-0.00006003,-0.00017841,0.00019311,0
 .00015330,-0.00041911,0.00003328,0.00009460,0.00000376,0.00003590,-0.0
 0007684,-0.00011645,0.00082790,0.00011742,0.00003161,0.00000891,-0.000
 02761,0.00059114,0.00002953,-0.00016045,-0.00013583,0.00010379,0.00006
 435,-0.00012981,-0.00002660,0.00004719,-0.00020518,-0.00000195,-0.0000
 3024,-0.07832088,-0.08309801,0.01357779,0.00733525,0.01829750,-0.00147
 786,-0.00073935,0.00057620,-0.00048062,0.08685519,0.00000105,0.0000059
 9,0.00000024,-0.00001116,0.00000224,0.00000247,0.00005658,-0.00000749,
 -0.00002300,-0.00002047,0.00000502,0.00000461,0.00000615,-0.00000412,-
 0.00000105,-0.00001524,-0.00000250,0.00000017,0.00000137,-0.00000100,-
 0.00000018,0.00000119,0.00000037,-0.00000051,-0.00000099,0.00000044,0.
 00000037,0.00033367,-0.00011413,-0.00013283,-0.00006426,0.00072040,0.0
 0002544,0.00222118,0.00149801,-0.00089586,0.00157390,0.00086866,-0.000
 67696,0.00001141,0.00016503,0.00003225,-0.00012893,0.00020502,0.000067
 81,-0.00003058,0.00002202,0.00001771,0.00010438,0.00021035,-0.00004883
 ,-0.00015307,0.00041087,0.00004872,-0.00003591,-0.00000287,0.00001300,
 0.00039793,0.00002924,-0.00010548,-0.00009684,0.00005694,0.00004516,-0
 .00008509,-0.00005069,0.00003194,-0.00015788,-0.00000337,-0.00002374,-
 0.08887768,-0.28142850,0.03579561,-0.00495995,-0.01224028,0.00077396,-
 0.00404240,-0.01207947,0.00285171,0.09396582,0.30173407,-0.00000092,-0
 .00000311,0.00000166,0.00000648,-0.00000069,-0.00000205,-0.00002991,-0
 .00000045,0.00001058,0.00000881,-0.00000203,-0.00000009,-0.00000350,0.
 00000293,-0.00000062,0.00000880,0.00000096,-0.00000069,-0.00000032,0.0
 0000086,0.00000004,-0.00000009,-0.00000100,0.00000086,0.00000108,-0.00
 000027,-0.00000022,0.00017019,0.00067926,0.00036491,0.00279547,-0.0006
 0805,0.00042654,0.00367247,0.01202114,-0.00328198,-0.00061894,0.000703
 14,-0.00005681,-0.00009413,-0.00002562,-0.00007475,0.00011780,-0.00007
 866,0.00002126,0.00009401,-0.00001827,-0.00022994,-0.00007722,-0.00000
 718,-0.00015658,0.00007941,-0.00035422,0.00019535,-0.00003015,-0.00000
 526,-0.00002399,-0.00026260,-0.00000241,0.00005840,0.00006985,-0.00004
 439,-0.00002407,0.00004736,0.00000683,-0.00002456,0.00009032,0.0000009
 5,0.00001101,0.01357802,0.03336560,-0.05018444,0.00764636,0.01761253,-
 0.00270768,-0.00969714,-0.02544008,0.00525560,-0.01756855,-0.03780263,
 0.05042229,-0.13093097,0.13016835,-0.00100461,-0.01007824,0.02568656,-
 0.00027513,-0.00337793,-0.00159543,0.00000215,-0.00070449,-0.00047710,
 -0.00006311,-0.00149690,-0.00328986,0.00008529,0.01195852,-0.01249212,
 0.00005485,0.00136751,-0.00013945,-0.00002183,0.00003400,0.00007529,0.
 00000429,0.00061671,-0.00072785,-0.00001053,-0.00000367,-0.00003868,-0
 .00000300,-0.00001004,-0.00000532,0.00000997,0.00001102,-0.00000787,-0
 .00000285,-0.00002066,0.00000564,0.00001829,-0.00000283,0.00004548,-0.
 00000602,-0.00005987,-0.00003235,-0.00008319,0.00000088,-0.00000204,-0
 .00000551,-0.00000457,0.00000163,0.00000336,-0.00000551,-0.00000090,0.
 00000310,0.00000317,0.00000182,-0.00000581,0.00042064,0.00010854,0.000
 91292,-0.00004033,-0.00009263,-0.00013673,-0.00002711,0.00009974,-0.00
 018432,-0.00184020,0.00119118,-0.00045964,-0.00000522,0.00000640,-0.00
 000023,-0.00000405,-0.00000119,0.00000118,-0.00000362,-0.00000152,0.00
 000187,-0.00000142,-0.00000097,0.00000063,0.13691980,0.12857330,-0.275
 36034,0.00203211,-0.00309233,0.00589229,0.00009921,-0.00118915,0.00125
 729,-0.00000465,-0.00049197,0.00038235,0.00004872,-0.00394838,-0.00258
 150,0.00000566,0.01488212,-0.01727855,0.00026736,0.00004698,0.00060007
 ,-0.00007620,0.00009621,0.00001364,-0.00001575,0.00074117,-0.00073638,
 0.00000930,-0.00000374,-0.00000446,0.00000141,-0.00000044,0.00000023,-
 0.00000365,0.00000076,-0.00000119,0.00000210,-0.00000594,0.00000147,0.
 00000007,0.00000103,0.00000137,-0.00000031,-0.00001369,-0.00000237,-0.
 00001157,-0.00000012,-0.00000035,-0.00000122,-0.00000030,0.00000072,0.
 00000185,-0.00000092,-0.00000002,0.,0.00000035,-0.00000042,-0.00000041
 ,0.00000708,0.00003362,0.00009295,-0.00000137,-0.00001157,0.00000059,-
 0.00000704,0.00001045,-0.00001590,-0.00043889,0.00024543,-0.00007401,0
 .00000005,0.00000084,-0.00000065,-0.00000079,-0.00000003,0.00000033,-0
 .00000037,0.00000016,0.00000068,-0.00000036,-0.00000060,0.00000029,-0.
 13881710,0.28626158,-0.00096953,0.00220300,-0.03856786,-0.00005215,0.0
 0005097,0.00554230,0.00019676,0.00005142,0.00793262,0.00011481,-0.0000
 1770,-0.00147778,-0.00001379,0.00010884,0.00463030,-0.00009115,0.00012
 599,0.00498279,-0.00003605,-0.00008150,-0.00456837,-0.00000019,0.00000
 398,-0.00047713,-0.00001516,0.00000708,0.00076367,0.00000369,-0.000003
 16,-0.00000482,-0.00000385,-0.00000166,0.00000251,0.00000429,0.0000028
 5,-0.00000191,-0.00000367,-0.00000623,-0.00000165,-0.00000242,0.000010
 70,0.00000739,0.00000437,-0.00001730,0.00000715,0.00000052,0.00000009,
 -0.00000038,0.00000055,-0.00000003,0.00000059,-0.00000009,0.00000024,0
 .00000298,-0.00000290,-0.00000129,-0.00000644,0.00000568,0.00014607,0.
 00006658,-0.00000859,0.00002915,0.00000773,-0.00002128,0.00000124,-0.0
 0006044,-0.00019805,-0.00025735,-0.00055117,-0.00000108,-0.00000043,0.
 00000020,0.00000023,-0.00000006,0.00000031,0.00000008,0.00000004,-0.00
 000009,0.00000008,0.00000007,-0.00000010,0.00118947,-0.00231301,0.0254
 2917,-0.04025135,-0.02226909,0.00016771,0.01187499,-0.00794733,0.00004
 978,-0.01107799,-0.00002171,0.00162438,0.01175573,0.00813689,0.0000432
 2,-0.04071751,0.02174778,-0.00010199,-0.11423315,-0.00002654,0.0001054
 3,0.00036964,0.00057743,0.00000277,0.00035633,-0.00058425,0.00000860,0
 .00019629,-0.00285527,-0.00005751,0.00015791,0.00061566,0.00002613,0.0
 0022006,0.00004808,-0.00019300,-0.00014476,0.00004109,0.00007006,0.000
 22721,-0.00005611,-0.00020514,0.00014717,-0.00063575,0.00003729,0.0004
 0451,0.00005312,0.00075819,-0.00004586,0.00004525,0.00007822,0.0000834
 6,-0.00002348,-0.00005795,0.00008803,0.00001912,-0.00006147,-0.0000500
 3,-0.00004501,0.00007980,-0.00752311,-0.00026943,-0.00956985,0.0010274
 4,0.00167089,0.00260361,0.00103179,-0.00157482,0.00270797,0.01496462,0
 .00019205,0.00211065,0.00007284,-0.00010206,-0.00000029,0.00006483,0.0
 0001699,-0.00001729,0.00005025,0.00002325,-0.00002928,0.00002910,0.000
 02320,-0.00001239,0.00017047,0.00288476,-0.00010221,0.62925045,-0.0257
 0018,0.01230444,-0.00014619,-0.00524265,-0.00591045,0.00015156,-0.0000
 2234,-0.00572996,0.00002847,0.00541665,-0.00577991,0.00003123,0.025186
 04,0.01276646,-0.00001240,-0.00002799,-0.10850188,0.00010100,-0.001518
 59,0.00040212,0.00002504,0.00151831,0.00041012,-0.00001520,-0.00042462
 ,-0.00291234,-0.00002742,0.00000875,0.00000498,-0.00000244,-0.00000250
 ,-0.00000294,-0.00000116,-0.00000084,0.00000369,0.00000054,0.00000513,
 -0.00000391,-0.00000065,-0.00000778,-0.00000046,0.00000350,0.00000194,
 -0.00000989,0.00000325,-0.00000060,0.00000218,-0.00000085,0.00000080,0
 .,-0.00000020,-0.00000006,0.00000004,-0.00000066,0.00000028,0.00000167
 ,0.00000155,-0.00003558,-0.00013200,-0.00004262,-0.00004873,0.00007811
 ,0.00002201,0.00005808,0.00005840,0.00000006,0.00006704,-0.00005129,0.
 00000104,-0.00000021,0.00000048,0.00000065,0.00000033,-0.00000005,-0.0
 0000021,0.00000030,0.00000007,-0.00000044,0.00000042,0.00000011,-0.000
 00037,0.00044918,-0.00287667,-0.00002836,-0.00125591,0.88504592,0.0002
 7082,0.00002529,-0.00290213,-0.00004271,0.00013004,0.00843603,0.000344
 44,0.00004284,-0.00057714,-0.00016161,0.00002241,0.00844276,0.00008653
 ,-0.00025219,-0.00290285,0.00002239,0.00015161,-0.08227330,0.00004387,
 0.00003582,0.00086893,0.00002718,-0.00002556,0.00086901,-0.00001697,0.
 00003337,-0.00430409,-0.00001163,-0.00001398,0.00000080,-0.00000342,0.
 00000234,0.00000449,0.00000377,-0.00000065,0.00000183,-0.00000413,-0.0
 0000241,0.00000496,-0.00001136,0.00001406,0.00000100,-0.00003385,-0.00
 000118,-0.00004976,0.00000141,0.00000180,-0.00000289,-0.00000127,0.000
 00020,0.00000162,-0.00000126,0.00000007,0.00000165,0.00000147,-0.00000
 137,-0.00000322,-0.00016644,0.00000383,0.00013245,0.00002055,-0.000028
 35,-0.00006526,0.00002043,0.00002182,-0.00006366,-0.00026538,0.0000031
 0,-0.00141370,-0.00000145,0.00000109,-0.00000137,-0.00000105,0.,0.0000
 0012,-0.00000084,-0.00000025,0.00000054,-0.00000023,-0.00000036,0.0000
 0026,-0.00001409,-0.00001807,-0.00430426,-0.00029965,-0.00637472,0.233
 60843,-0.00312431,0.00852502,-0.00004535,-0.00455870,-0.00058857,0.000
 01999,0.00342600,-0.00196856,-0.00049161,-0.00097162,-0.00203839,0.000
 00014,-0.00181629,-0.00310317,0.00005646,-0.03839082,-0.04947178,0.000
 54940,-0.00094739,0.00006731,0.00000365,-0.00020826,0.00015465,-0.0000
 0408,-0.00342749,-0.00087940,0.00004568,-0.00005259,-0.00021652,-0.000
 01156,-0.00007883,-0.00001934,0.00006767,0.00005116,-0.00001398,-0.000
 02324,-0.00008013,0.00002070,0.00007237,-0.00005067,0.00022492,-0.0000
 1553,-0.00015425,-0.00002039,-0.00027246,0.00001718,-0.00001612,-0.000
 02633,-0.00002966,0.00000858,0.00002028,-0.00003099,-0.00000706,0.0000
 2154,0.00001837,0.00001648,-0.00002647,0.00260906,0.00003264,0.0033556
 3,-0.00041321,-0.00051798,-0.00090775,-0.00037419,0.00054171,-0.000954
 20,-0.00513276,-0.00001528,-0.00084831,-0.00002565,0.00003643,0.000000
 70,-0.00002302,-0.00000598,0.00000588,-0.00001801,-0.00000838,0.000010
 29,-0.00001024,-0.00000808,0.00000431,0.00058250,-0.00004974,0.0000161
 3,-0.22763055,-0.16382448,0.00176188,0.23331744,0.00117933,0.00463982,
 -0.00000423,-0.00267908,0.00156374,-0.00004251,0.00330954,0.00018817,-
 0.00035445,-0.00327185,-0.00028767,-0.00003581,0.00993233,-0.00748139,
 -0.00000495,-0.03692386,-0.01247376,0.00033314,-0.00031591,-0.00000190
 ,-0.00000072,-0.00015044,0.00002678,-0.00000486,0.00096198,0.00306172,
 0.00003038,-0.00003745,-0.00013005,-0.00001102,-0.00004342,-0.00000848
 ,0.00004383,0.00003123,-0.00001077,-0.00001785,-0.00004808,0.00001231,
 0.00004712,-0.00003181,0.00013410,-0.00001571,-0.00007306,-0.00001293,
 -0.00014166,0.00000961,-0.00001046,-0.00001532,-0.00001802,0.00000522,
 0.00001203,-0.00001832,-0.00000384,0.00001286,0.00001091,0.00000976,-0
 .00001559,0.00170318,0.00004102,0.00210509,-0.00022897,-0.00033249,-0.
 00054956,-0.00021261,0.00034053,-0.00057206,-0.00338992,0.00025613,-0.
 00049632,-0.00001609,0.00002124,-0.00000032,-0.00001348,-0.00000371,0.
 00000388,-0.00001034,-0.00000493,0.00000605,-0.00000592,-0.00000446,0.
 00000270,0.00089248,0.00109913,0.00001685,-0.16627648,-0.39122506,0.00
 326057,0.20354393,0.53081878,-0.00002863,-0.00005037,0.00366194,0.0000
 5146,-0.00002079,-0.00125365,-0.00009424,0.00001202,0.00013334,0.00006
 644,0.00002662,-0.00084508,-0.00009263,0.00008540,0.00114503,0.0003760
 0,0.00034279,0.01923175,-0.00000812,-0.00001453,-0.00047176,-0.0000045
 2,0.00000204,0.00002350,0.00002180,-0.00001433,0.00037583,0.00000156,0
 .00000573,-0.00000231,0.00000231,-0.00000178,0.00000336,-0.00000023,0.
 00000037,-0.00000047,0.00000046,0.00000083,-0.00000127,0.00000114,-0.0
 0000245,0.00000130,0.00000256,-0.00000026,0.00000506,0.00000096,-0.000
 00146,0.00000007,-0.00000001,0.00000015,-0.00000082,0.00000027,-0.0000
 0020,-0.00000020,-0.00000034,-0.00000042,0.00000067,-0.00002149,-0.000
 01032,-0.00005034,-0.00000179,0.00000865,0.00001377,0.00000791,-0.0000
 0130,0.00001666,0.00011096,-0.00002177,0.00014029,0.00000032,-0.000000
 50,0.,0.00000014,0.00000010,-0.00000032,0.00000009,0.00000009,0.000000
 07,-0.00000002,0.00000011,-0.00000006,-0.00000217,-0.00001230,0.000272
 31,0.00177126,0.00330682,-0.07676050,-0.00223501,-0.00515524,0.0277522
 8,-0.00175254,0.00316341,-0.00004248,-0.00102050,0.00202492,0.00001479
 ,0.00343962,0.00199763,-0.00051132,-0.00459525,0.00052078,0.00000901,-
 0.00302685,-0.00860086,0.00001536,-0.03923250,0.04920684,-0.00045334,-
 0.00020990,-0.00015455,-0.00000650,-0.00094823,-0.00007397,0.00000855,
 0.00059164,0.00004332,0.00000053,-0.00005538,-0.00021897,-0.00001178,-
 0.00007802,-0.00001797,0.00006855,0.00005168,-0.00001507,-0.00002328,-
 0.00008224,0.00002208,0.00007239,-0.00004857,0.00022477,-0.00001591,-0
 .00015499,-0.00001569,-0.00027384,0.00001708,-0.00001679,-0.00002606,-
 0.00002957,0.00000859,0.00002035,-0.00003144,-0.00000708,0.00002178,0.
 00001847,0.00001616,-0.00002710,0.00262401,0.00014080,0.00337516,-0.00
 037652,-0.00057817,-0.00092622,-0.00041441,0.00049133,-0.00094502,-0.0
 0516468,-0.00011265,-0.00085675,-0.00002546,0.00003598,0.,-0.00002309,
 -0.00000604,0.00000616,-0.00001809,-0.00000826,0.00001048,-0.00001061,
 -0.00000832,0.00000451,-0.00346760,0.00082883,-0.00001449,-0.23086882,
 0.16539980,-0.00156739,0.04752791,-0.00780941,0.00007358,0.23736483,-0
 .00987985,-0.00755083,0.00007685,0.00326247,-0.00023166,-0.00000155,-0
 .00327958,0.00017757,0.00035653,0.00262074,0.00159917,0.00000413,-0.00
 125610,0.00454399,-0.00000079,0.03666045,-0.01162795,0.00030829,0.0001
 4866,0.00002560,0.00000259,0.00030530,-0.00000076,-0.00000697,-0.00089
 398,0.00109317,0.00001088,0.00003395,0.00012789,0.00001306,0.00004599,
 0.00001013,-0.00004369,-0.00003094,0.00000620,0.00001783,0.00004412,-0
 .00000991,-0.00004603,0.00003453,-0.00013202,0.00001347,0.00007133,0.0
 0000843,0.00013909,-0.00000971,0.00000966,0.00001515,0.00001701,-0.000
 00468,-0.00001215,0.00001865,0.00000420,-0.00001225,-0.00001038,-0.000
 01001,0.00001526,-0.00167485,-0.00007625,-0.00207286,0.00020716,0.0003
 5550,0.00054061,0.00022512,-0.00030821,0.00056224,0.00333765,0.0003428
 1,0.00049028,0.00001554,-0.00002085,-0.00000011,0.00001332,0.00000359,
 -0.00000382,0.00001023,0.00000476,-0.00000569,0.00000599,0.00000468,-0
 .00000249,-0.00100992,0.00305379,-0.00003050,0.16784768,-0.38794199,0.
 00296881,0.00960085,-0.13022654,0.00151629,-0.20648144,0.52677049,0.00
 007374,0.00006690,0.00114253,-0.00001275,-0.00001603,-0.00084264,-0.00
 003601,-0.00002303,0.00012515,0.00001725,-0.00000355,-0.00125411,-0.00
 004607,-0.00000631,0.00365928,-0.00035362,0.00025817,0.01923223,-0.000
 00637,-0.00000289,0.00002370,-0.00001710,0.00000613,-0.00047138,0.0000
 1619,-0.00001031,0.00027234,0.00000020,0.00000029,0.00000060,-0.000000
 19,-0.00000107,0.00000015,0.00000035,-0.00000026,-0.00000088,0.0000013
 1,0.00000143,0.00000373,0.00000135,-0.00000257,-0.00000193,0.00000130,
 0.00000027,0.00000204,0.00000018,-0.00000012,0.00000038,-0.00000006,0.
 00000033,-0.00000008,-0.00000037,-0.00000013,-0.00000057,0.00000067,0.
 00000139,0.,0.00001070,0.00000963,-0.00001085,0.00000392,-0.00000411,0
 .00000723,-0.00000583,-0.00000151,0.00000340,0.00004715,0.00001373,0.0
 0012946,-0.00000003,0.00000016,0.00000020,-0.00000015,-0.00000003,-0.0
 0000001,-0.00000015,-0.00000008,-0.00000008,-0.00000016,0.00000005,-0.
 00000016,-0.00000859,-0.00001492,0.00037379,-0.00153706,0.00297719,-0.
 07675078,-0.00015012,0.00156371,0.02660954,0.00200032,-0.00481245,0.02
 774769\\-0.00000580,0.00000195,0.00000099,0.00000382,0.00000151,0.0000
 0232,-0.00001941,-0.00000150,-0.00000215,0.00000476,0.00000002,-0.0000
 0024,-0.00000704,-0.00000002,-0.00000111,0.00002177,0.00000015,-0.0000
 0023,0.00000067,0.00000014,0.00000185,-0.00000032,0.00000064,-0.000002
 57,-0.00000056,0.00000064,-0.00000244,-0.00000505,-0.00000110,-0.00000
 099,0.00000072,-0.00000128,-0.00000267,0.00000045,-0.00000109,-0.00000
 087,0.00000147,0.00000167,0.00000435,-0.00000404,0.00000078,0.00000094
 ,0.00001080,-0.00000225,-0.00000294,0.00000026,-0.00000129,-0.00000315
 ,-0.00000045,0.00000042,-0.00000242,0.00000002,-0.00000060,0.00000226,
 0.00000084,-0.00000046,0.00000178,-0.00001632,-0.00000406,-0.00001328,
 0.00000065,-0.00001070,-0.00000046,0.00000046,0.00000786,-0.00000407,0
 .00002119,0.00000288,0.00002265,-0.00000181,-0.00000010,-0.00000287,0.
 00000054,0.00000142,0.00000070,0.00000051,0.00000021,0.00000102,0.0000
 0018,0.00000082,0.00000033,-0.00000007,0.00000066,0.00000239,-0.000023
 49,0.00000055,0.00000113,0.00000749,0.00000356,-0.00000192,0.00000775,
 -0.00000145,0.00000170\\\@


 Experience is what you get when you don't get what you want.
 -- Dan Stanford
 Job cpu time:  1 days  0 hours 26 minutes 18.7 seconds.
 File lengths (MBytes):  RWF=   1001 Int=      0 D2E=      0 Chk=     28 Scr=      1
 Normal termination of Gaussian 09 at Sat Nov 19 07:24:22 2016.
