 Entering Gaussian System, Link 0=/home/ubuntu/g09/g09
 Input=p-NO2-Ph-F-RB3LYP-aug-cc-pVDZ-T348-Water.gjf
 Output=p-NO2-Ph-F-RB3LYP-aug-cc-pVDZ-T348-Water.log
 Initial command:
 /home/ubuntu/g09/l1.exe /home/ubuntu/g09/Gau-11879.inp -scrdir=/home/ubuntu/g09/
 Entering Link 1 = /home/ubuntu/g09/l1.exe PID=     11881.
  
 Copyright (c) 1988,1990,1992,1993,1995,1998,2003,2009,2010,
            Gaussian, Inc.  All Rights Reserved.
  
 This is part of the Gaussian(R) 09 program.  It is based on
 the Gaussian(R) 03 system (copyright 2003, Gaussian, Inc.),
 the Gaussian(R) 98 system (copyright 1998, Gaussian, Inc.),
 the Gaussian(R) 94 system (copyright 1995, Gaussian, Inc.),
 the Gaussian 92(TM) system (copyright 1992, Gaussian, Inc.),
 the Gaussian 90(TM) system (copyright 1990, Gaussian, Inc.),
 the Gaussian 88(TM) system (copyright 1988, Gaussian, Inc.),
 the Gaussian 86(TM) system (copyright 1986, Carnegie Mellon
 University), and the Gaussian 82(TM) system (copyright 1983,
 Carnegie Mellon University). Gaussian is a federally registered
 trademark of Gaussian, Inc.
  
 This software contains proprietary and confidential information,
 including trade secrets, belonging to Gaussian, Inc.
  
 This software is provided under written license and may be
 used, copied, transmitted, or stored only in accord with that
 written license.
  
 The following legend is applicable only to US Government
 contracts under FAR:
  
                    RESTRICTED RIGHTS LEGEND
  
 Use, reproduction and disclosure by the US Government is
 subject to restrictions as set forth in subparagraphs (a)
 and (c) of the Commercial Computer Software - Restricted
 Rights clause in FAR 52.227-19.
  
 Gaussian, Inc.
 340 Quinnipiac St., Bldg. 40, Wallingford CT 06492
  
  
 ---------------------------------------------------------------
 Warning -- This program may not be used in any manner that
 competes with the business of Gaussian, Inc. or will provide
 assistance to any competitor of Gaussian, Inc.  The licensee
 of this program is prohibited from giving any competitor of
 Gaussian, Inc. access to this program.  By using this program,
 the user acknowledges that Gaussian, Inc. is engaged in the
 business of creating and licensing software in the field of
 computational chemistry and represents and warrants to the
 licensee that it is not a competitor of Gaussian, Inc. and that
 it will not use this program in any manner prohibited above.
 ---------------------------------------------------------------
  

 Cite this work as:
 Gaussian 09, Revision B.01,
 M. J. Frisch, G. W. Trucks, H. B. Schlegel, G. E. Scuseria, 
 M. A. Robb, J. R. Cheeseman, G. Scalmani, V. Barone, B. Mennucci, 
 G. A. Petersson, H. Nakatsuji, M. Caricato, X. Li, H. P. Hratchian, 
 A. F. Izmaylov, J. Bloino, G. Zheng, J. L. Sonnenberg, M. Hada, 
 M. Ehara, K. Toyota, R. Fukuda, J. Hasegawa, M. Ishida, T. Nakajima, 
 Y. Honda, O. Kitao, H. Nakai, T. Vreven, J. A. Montgomery, Jr., 
 J. E. Peralta, F. Ogliaro, M. Bearpark, J. J. Heyd, E. Brothers, 
 K. N. Kudin, V. N. Staroverov, T. Keith, R. Kobayashi, J. Normand, 
 K. Raghavachari, A. Rendell, J. C. Burant, S. S. Iyengar, J. Tomasi, 
 M. Cossi, N. Rega, J. M. Millam, M. Klene, J. E. Knox, J. B. Cross, 
 V. Bakken, C. Adamo, J. Jaramillo, R. Gomperts, R. E. Stratmann, 
 O. Yazyev, A. J. Austin, R. Cammi, C. Pomelli, J. W. Ochterski, 
 R. L. Martin, K. Morokuma, V. G. Zakrzewski, G. A. Voth, 
 P. Salvador, J. J. Dannenberg, S. Dapprich, A. D. Daniels, 
 O. Farkas, J. B. Foresman, J. V. Ortiz, J. Cioslowski, 
 and D. J. Fox, Gaussian, Inc., Wallingford CT, 2010.
 
 ******************************************
 Gaussian 09:  EM64L-G09RevB.01 12-Aug-2010
                21-Aug-2019 
 ******************************************
 %mem=500MW
 %nproc=7
 Will use up to    7 processors via shared memory.
 ----------------------------------------------------------------------
 #p scrf=(cpcm,solvent=water) opt Temperature=348.15 int=(grid=ultrafin
 e) CPHF=(grid=fine) freq rb3lyp/aug-cc-pvdz
 ----------------------------------------------------------------------
 1/14=-1,18=20,19=15,26=3,38=1,112=348150/1,3;
 2/9=110,12=2,17=6,18=5,40=1/2;
 3/5=16,7=10,11=2,16=1,25=1,30=1,70=2101,71=1,72=1,74=-5,75=-5,116=1/1,2,3;
 4//1;
 5/5=2,38=5,53=1,96=4/2;
 6/7=2,8=2,9=2,10=2,28=1/1;
 7//1,2,3,16;
 1/14=-1,18=20,19=15/3(2);
 2/9=110/2;
 99//99;
 2/9=110/2;
 3/5=16,7=10,11=2,16=1,25=1,30=1,70=2105,71=1,72=1,74=-5,75=-5,116=1/1,2,3;
 4/5=5,16=3/1;
 5/5=2,38=5,53=1,96=4/2;
 7//1,2,3,16;
 1/14=-1,18=20,19=15/3(-5);
 2/9=110/2;
 6/7=2,8=2,9=2,10=2,19=2,28=1/1;
 99/9=1/99;
 Leave Link    1 at Wed Aug 21 03:45:55 2019, MaxMem=  524288000 cpu:       0.3
 (Enter /home/ubuntu/g09/l101.exe)
 -------------------------------
 p-NO2-Ph-F-RB3LYP-aug-cc-pVDZ--
 -------------------------------
 Symbolic Z-matrix:
 Charge =  0 Multiplicity = 1
 C                    -0.00071  -1.22245   0. 
 C                    -1.39458  -1.22404   0. 
 C                    -2.06048   0.        0. 
 C                    -1.39458   1.22404   0. 
 C                    -0.00071   1.22245   0. 
 C                     0.67554   0.        0. 
 H                     0.5653   -2.15044   0. 
 H                    -1.9631   -2.15231   0. 
 H                    -1.9631    2.15231   0. 
 H                     0.5653    2.15044   0. 
 N                     2.14857   0.        0. 
 O                     2.72054  -1.08779   0. 
 O                     2.72054   1.08779   0. 
 F                    -3.41332   0.        0. 
 
 NAtoms=     14 NQM=     14 NQMF=      0 NMic=      0 NMicF=      0 NTot=     14.
                    Isotopes and Nuclear Properties:
 (Nuclear quadrupole moments (NQMom) in fm**2, nuclear magnetic moments (NMagM)
  in nuclear magnetons)

  Atom         1           2           3           4           5           6           7           8           9          10
 IAtWgt=          12          12          12          12          12          12           1           1           1           1
 AtmWgt=  12.0000000  12.0000000  12.0000000  12.0000000  12.0000000  12.0000000   1.0078250   1.0078250   1.0078250   1.0078250
 NucSpn=           0           0           0           0           0           0           1           1           1           1
 AtZEff=   0.0000000   0.0000000   0.0000000   0.0000000   0.0000000   0.0000000   0.0000000   0.0000000   0.0000000   0.0000000
 NQMom=    0.0000000   0.0000000   0.0000000   0.0000000   0.0000000   0.0000000   0.0000000   0.0000000   0.0000000   0.0000000
 NMagM=    0.0000000   0.0000000   0.0000000   0.0000000   0.0000000   0.0000000   2.7928460   2.7928460   2.7928460   2.7928460

  Atom        11          12          13          14
 IAtWgt=          14          16          16          19
 AtmWgt=  14.0030740  15.9949146  15.9949146  18.9984033
 NucSpn=           2           0           0           1
 AtZEff=   0.0000000   0.0000000   0.0000000   0.0000000
 NQMom=    2.0440000   0.0000000   0.0000000   0.0000000
 NMagM=    0.4037610   0.0000000   0.0000000   2.6288670
 Leave Link  101 at Wed Aug 21 03:45:55 2019, MaxMem=  524288000 cpu:       0.4
 (Enter /home/ubuntu/g09/l103.exe)

 GradGradGradGradGradGradGradGradGradGradGradGradGradGradGradGradGradGrad
 Berny optimization.
 Initialization pass.
                           ----------------------------
                           !    Initial Parameters    !
                           ! (Angstroms and Degrees)  !
 --------------------------                            --------------------------
 ! Name  Definition              Value          Derivative Info.                !
 --------------------------------------------------------------------------------
 ! R1    R(1,2)                  1.3939         estimate D2E/DX2                !
 ! R2    R(1,6)                  1.397          estimate D2E/DX2                !
 ! R3    R(1,7)                  1.087          estimate D2E/DX2                !
 ! R4    R(2,3)                  1.3934         estimate D2E/DX2                !
 ! R5    R(2,8)                  1.0885         estimate D2E/DX2                !
 ! R6    R(3,4)                  1.3934         estimate D2E/DX2                !
 ! R7    R(3,14)                 1.3528         estimate D2E/DX2                !
 ! R8    R(4,5)                  1.3939         estimate D2E/DX2                !
 ! R9    R(4,9)                  1.0885         estimate D2E/DX2                !
 ! R10   R(5,6)                  1.397          estimate D2E/DX2                !
 ! R11   R(5,10)                 1.087          estimate D2E/DX2                !
 ! R12   R(6,11)                 1.473          estimate D2E/DX2                !
 ! R13   R(11,12)                1.229          estimate D2E/DX2                !
 ! R14   R(11,13)                1.229          estimate D2E/DX2                !
 ! A1    A(2,1,6)              119.0164         estimate D2E/DX2                !
 ! A2    A(2,1,7)              121.315          estimate D2E/DX2                !
 ! A3    A(6,1,7)              119.6687         estimate D2E/DX2                !
 ! A4    A(1,2,3)              118.4816         estimate D2E/DX2                !
 ! A5    A(1,2,8)              121.5508         estimate D2E/DX2                !
 ! A6    A(3,2,8)              119.9676         estimate D2E/DX2                !
 ! A7    A(2,3,4)              122.906          estimate D2E/DX2                !
 ! A8    A(2,3,14)             118.547          estimate D2E/DX2                !
 ! A9    A(4,3,14)             118.547          estimate D2E/DX2                !
 ! A10   A(3,4,5)              118.4816         estimate D2E/DX2                !
 ! A11   A(3,4,9)              119.9676         estimate D2E/DX2                !
 ! A12   A(5,4,9)              121.5508         estimate D2E/DX2                !
 ! A13   A(4,5,6)              119.0164         estimate D2E/DX2                !
 ! A14   A(4,5,10)             121.315          estimate D2E/DX2                !
 ! A15   A(6,5,10)             119.6687         estimate D2E/DX2                !
 ! A16   A(1,6,5)              122.0979         estimate D2E/DX2                !
 ! A17   A(1,6,11)             118.951          estimate D2E/DX2                !
 ! A18   A(5,6,11)             118.951          estimate D2E/DX2                !
 ! A19   A(6,11,12)            117.7358         estimate D2E/DX2                !
 ! A20   A(6,11,13)            117.7358         estimate D2E/DX2                !
 ! A21   A(12,11,13)           124.5284         estimate D2E/DX2                !
 ! D1    D(6,1,2,3)              0.0            estimate D2E/DX2                !
 ! D2    D(6,1,2,8)            180.0            estimate D2E/DX2                !
 ! D3    D(7,1,2,3)            180.0            estimate D2E/DX2                !
 ! D4    D(7,1,2,8)              0.0            estimate D2E/DX2                !
 ! D5    D(2,1,6,5)              0.0            estimate D2E/DX2                !
 ! D6    D(2,1,6,11)           180.0            estimate D2E/DX2                !
 ! D7    D(7,1,6,5)            180.0            estimate D2E/DX2                !
 ! D8    D(7,1,6,11)             0.0            estimate D2E/DX2                !
 ! D9    D(1,2,3,4)              0.0            estimate D2E/DX2                !
 ! D10   D(1,2,3,14)           180.0            estimate D2E/DX2                !
 ! D11   D(8,2,3,4)            180.0            estimate D2E/DX2                !
 ! D12   D(8,2,3,14)             0.0            estimate D2E/DX2                !
 ! D13   D(2,3,4,5)              0.0            estimate D2E/DX2                !
 ! D14   D(2,3,4,9)            180.0            estimate D2E/DX2                !
 ! D15   D(14,3,4,5)           180.0            estimate D2E/DX2                !
 ! D16   D(14,3,4,9)             0.0            estimate D2E/DX2                !
 ! D17   D(3,4,5,6)              0.0            estimate D2E/DX2                !
 ! D18   D(3,4,5,10)           180.0            estimate D2E/DX2                !
 ! D19   D(9,4,5,6)            180.0            estimate D2E/DX2                !
 ! D20   D(9,4,5,10)             0.0            estimate D2E/DX2                !
 ! D21   D(4,5,6,1)              0.0            estimate D2E/DX2                !
 ! D22   D(4,5,6,11)           180.0            estimate D2E/DX2                !
 ! D23   D(10,5,6,1)           180.0            estimate D2E/DX2                !
 ! D24   D(10,5,6,11)            0.0            estimate D2E/DX2                !
 ! D25   D(1,6,11,12)            0.0            estimate D2E/DX2                !
 ! D26   D(1,6,11,13)          180.0            estimate D2E/DX2                !
 ! D27   D(5,6,11,12)          180.0            estimate D2E/DX2                !
 ! D28   D(5,6,11,13)            0.0            estimate D2E/DX2                !
 --------------------------------------------------------------------------------
 Trust Radius=3.00D-01 FncErr=1.00D-07 GrdErr=1.00D-06
 Number of steps in this run=     73 maximum allowed number of steps=    100.
 GradGradGradGradGradGradGradGradGradGradGradGradGradGradGradGradGradGrad

 Leave Link  103 at Wed Aug 21 03:45:55 2019, MaxMem=  524288000 cpu:       0.0
 (Enter /home/ubuntu/g09/l202.exe)
                          Input orientation:                          
 ---------------------------------------------------------------------
 Center     Atomic      Atomic             Coordinates (Angstroms)
 Number     Number       Type             X           Y           Z
 ---------------------------------------------------------------------
      1          6           0       -0.000710   -1.222450    0.000000
      2          6           0       -1.394580   -1.224040    0.000000
      3          6           0       -2.060480    0.000000    0.000000
      4          6           0       -1.394580    1.224040    0.000000
      5          6           0       -0.000710    1.222450    0.000000
      6          6           0        0.675540    0.000000    0.000000
      7          1           0        0.565300   -2.150440    0.000000
      8          1           0       -1.963100   -2.152310    0.000000
      9          1           0       -1.963100    2.152310    0.000000
     10          1           0        0.565300    2.150440    0.000000
     11          7           0        2.148570    0.000000    0.000000
     12          8           0        2.720540   -1.087790    0.000000
     13          8           0        2.720540    1.087790    0.000000
     14          9           0       -3.413320    0.000000    0.000000
 ---------------------------------------------------------------------
                    Distance matrix (angstroms):
                    1          2          3          4          5
     1  C    0.000000
     2  C    1.393871   0.000000
     3  C    2.395211   1.393448   0.000000
     4  C    2.815704   2.448080   1.393448   0.000000
     5  C    2.444900   2.815704   2.395211   1.393871   0.000000
     6  C    1.397032   2.404926   2.736020   2.404926   1.397032
     7  H    1.086983   2.167798   3.393982   3.902338   3.420052
     8  H    2.171546   1.088531   2.154512   3.423880   3.903842
     9  H    3.903842   3.423880   2.154512   1.088531   2.171546
    10  H    3.420052   3.902338   3.393982   2.167798   1.086983
    11  N    2.472608   3.748625   4.209050   3.748625   2.472608
    12  O    2.724580   4.117375   4.903207   4.720039   3.569651
    13  O    3.569651   4.720039   4.903207   4.117375   2.724580
    14  F    3.624954   2.360844   1.352840   2.360844   3.624954
                    6          7          8          9         10
     6  C    0.000000
     7  H    2.153264   0.000000
     8  H    3.405123   2.528401   0.000000
     9  H    3.405123   4.990638   4.304620   0.000000
    10  H    2.153264   4.300880   4.990638   2.528401   0.000000
    11  N    1.473030   2.670419   4.640934   4.640934   2.670419
    12  O    2.316314   2.402974   4.803091   5.695150   3.889883
    13  O    2.316314   3.889883   5.695150   4.803091   2.402974
    14  F    4.088860   4.522589   2.595299   2.595299   4.522589
                   11         12         13         14
    11  N    0.000000
    12  O    1.228998   0.000000
    13  O    1.228998   2.175580   0.000000
    14  F    5.561890   6.229569   6.229569   0.000000
 Stoichiometry    C6H4FNO2
 Framework group  C2V[C2(NCCF),SGV(C4H4O2)]
 Deg. of freedom    13
 Full point group                 C2V     NOp   4
 Largest Abelian subgroup         C2V     NOp   4
 Largest concise Abelian subgroup C2      NOp   2
                         Standard orientation:                         
 ---------------------------------------------------------------------
 Center     Atomic      Atomic             Coordinates (Angstroms)
 Number     Number       Type             X           Y           Z
 ---------------------------------------------------------------------
      1          6           0        0.000000    1.222450    0.000710
      2          6           0        0.000000    1.224040    1.394580
      3          6           0        0.000000    0.000000    2.060480
      4          6           0        0.000000   -1.224040    1.394580
      5          6           0        0.000000   -1.222450    0.000710
      6          6           0        0.000000    0.000000   -0.675540
      7          1           0        0.000000    2.150440   -0.565300
      8          1           0        0.000000    2.152310    1.963100
      9          1           0        0.000000   -2.152310    1.963100
     10          1           0        0.000000   -2.150440   -0.565300
     11          7           0        0.000000    0.000000   -2.148570
     12          8           0        0.000000    1.087790   -2.720540
     13          8           0        0.000000   -1.087790   -2.720540
     14          9           0        0.000000    0.000000    3.413320
 ---------------------------------------------------------------------
 Rotational constants (GHZ):      3.9379526      0.7967947      0.6627048
 Leave Link  202 at Wed Aug 21 03:45:55 2019, MaxMem=  524288000 cpu:       0.0
 (Enter /home/ubuntu/g09/l301.exe)
 Standard basis: Aug-CC-pVDZ (5D, 7F)
 Ernie: Thresh=  0.10000D-02 Tol=  0.10000D-05 Strict=F.
 Ernie:  20 primitive shells out of 278 were deleted.
 There are   106 symmetry adapted basis functions of A1  symmetry.
 There are    33 symmetry adapted basis functions of A2  symmetry.
 There are    45 symmetry adapted basis functions of B1  symmetry.
 There are    82 symmetry adapted basis functions of B2  symmetry.
 Integral buffers will be    131072 words long.
 Raffenetti 2 integral format.
 Two-electron integral symmetry is turned on.
   266 basis functions,   474 primitive gaussians,   286 cartesian basis functions
    36 alpha electrons       36 beta electrons
       nuclear repulsion energy       492.4450818657 Hartrees.
 IExCor=  402 DFT=T Ex+Corr=B3LYP ExCW=0 ScaHFX=  0.200000
 ScaDFX=  0.800000  0.720000  1.000000  0.810000 ScalE2=  1.000000  1.000000
 IRadAn=      5 IRanWt=     -1 IRanGd=            0 ICorTp=0
 NAtoms=   14 NActive=   14 NUniq=    9 SFac= 2.42D+00 NAtFMM=   50 NAOKFM=F Big=F
 ------------------------------------------------------------------------------
 Polarizable Continuum Model (PCM)
 =================================
 Model                : C-PCM.
 Atomic radii         : UFF (Universal Force Field).
 Polarization charges : Total charges.
 Charge compensation  : None.
 Solution method      : Matrix inversion.
 Cavity type          : Scaled VdW (van der Waals Surface) (Alpha=1.100).
 Cavity algorithm     : GePol (No added spheres)
                        Default sphere list used, NSphG=   14.
                        Lebedev-Laikov grids with approx.  5.0 points / Ang**2.
                        Smoothing algorithm: Karplus/York (Gamma=1.0000).
                        Polarization charges: spherical gaussians, with
                                              point-specific exponents (IZeta= 3).
                        Self-potential: point-specific (ISelfS= 7).
                        Self-field    : sphere-specific E.n sum rule (ISelfD= 2).
 1st derivatives      : Analytical E(r).r(x)/FMM algorithm (CHGder, D1EAlg=3).
                        Cavity 1st derivative terms included.
 Solvent              : Water, Eps=  78.355300 Eps(inf)=   1.777849
 ------------------------------------------------------------------------------
 Spheres list:
 ISph  on   Nord    Re0     Alpha      Xe            Ye            Ze
    1   C      1    1.926   1.100      0.000000      1.222450      0.000710
    2   C      2    1.926   1.100      0.000000      1.224040      1.394580
    3   C      3    1.926   1.100      0.000000      0.000000      2.060480
    4   C      4    1.926   1.100      0.000000     -1.224040      1.394580
    5   C      5    1.926   1.100      0.000000     -1.222450      0.000710
    6   C      6    1.926   1.100      0.000000      0.000000     -0.675540
    7   H      7    1.443   1.100      0.000000      2.150440     -0.565300
    8   H      8    1.443   1.100      0.000000      2.152310      1.963100
    9   H      9    1.443   1.100      0.000000     -2.152310      1.963100
   10   H     10    1.443   1.100      0.000000     -2.150440     -0.565300
   11   N     11    1.830   1.100      0.000000      0.000000     -2.148570
   12   O     12    1.750   1.100      0.000000      1.087790     -2.720540
   13   O     13    1.750   1.100      0.000000     -1.087790     -2.720540
   14   F     14    1.682   1.100      0.000000      0.000000      3.413320
 ------------------------------------------------------------------------------
 GePol: Number of generator spheres                  =      14
 GePol: Total number of spheres                      =      14
 GePol: Number of exposed spheres                    =      14 (100.00%)
 GePol: Number of points                             =    1396
 GePol: Average weight of points                     =       0.13
 GePol: Minimum weight of points                     =   0.21D-06
 GePol: Maximum weight of points                     =    0.20577
 GePol: Number of points with low weight             =      65
 GePol: Fraction of low-weight points (<1% of avg)   =       4.66%
 GePol: Cavity surface area                          =    179.076 Ang**2
 GePol: Cavity volume                                =    175.841 Ang**3
 Leave Link  301 at Wed Aug 21 03:45:55 2019, MaxMem=  524288000 cpu:       0.4
 (Enter /home/ubuntu/g09/l302.exe)
 NPDir=0 NMtPBC=     1 NCelOv=     1 NCel=       1 NClECP=     1 NCelD=      1
         NCelK=      1 NCelE2=     1 NClLst=     1 CellRange=     0.0.
 One-electron integrals computed using PRISM.
 One-electron integral symmetry used in STVInt
 NBasis=   266 RedAO= T  NBF=   106    33    45    82
 NBsUse=   266 1.00D-06 NBFU=   106    33    45    82
 Precomputing XC quadrature grid using
 IXCGrd= 2 IRadAn=           5 IRanWt=          -1 IRanGd=           0 AccXCQ= 0.00D+00.
 NRdTot=    1200 NPtTot=      324098 NUsed=      332693 NTot=      332725
 NSgBfM=   285   285   285   285   285 NAtAll=    14    14.
 Leave Link  302 at Wed Aug 21 03:45:55 2019, MaxMem=  524288000 cpu:       2.0
 (Enter /home/ubuntu/g09/l303.exe)
 DipDrv:  MaxL=1.
 Leave Link  303 at Wed Aug 21 03:45:55 2019, MaxMem=  524288000 cpu:       0.3
 (Enter /home/ubuntu/g09/l401.exe)
 Harris functional with IExCor=  402 diagonalized for initial guess.
 ExpMin= 2.97D-02 ExpMax= 1.47D+04 ExpMxC= 5.03D+02 IAcc=3 IRadAn=         5 AccDes= 0.00D+00
 HarFok:  IExCor=  402 AccDes= 0.00D+00 IRadAn=         5 IDoV= 1
 ScaDFX=  1.000000  1.000000  1.000000  1.000000
 FoFCou: FMM=F IPFlag=           0 FMFlag=      100000 FMFlg1=           0
         NFxFlg=           0 DoJE=T BraDBF=F KetDBF=T FulRan=T
         Omega=  0.000000  0.000000  1.000000  0.000000  0.000000 ICntrl=     500 IOpCl=  0
         NMat0=    1 NMatS0=    1 NMatT0=    0 NMatD0=    1 NMtDS0=    0 NMtDT0=    0
         I1Cent=           4 NGrid=           0.
 Petite list used in FoFCou.
 Harris En= -536.037488840465    
 Initial guess orbital symmetries:
       Occupied  (A1) (A1) (B2) (A1) (B2) (A1) (A1) (B2) (A1) (A1)
                 (A1) (A1) (B2) (A1) (B2) (A1) (A1) (B2) (A1) (A1)
                 (B2) (A1) (A1) (B2) (B2) (B1) (A1) (B1) (B2) (B1)
                 (B2) (A2) (A2) (A1) (B2) (B1)
       Virtual   (B1) (A2) (B1) (A1) (B2) (A1) (A1) (B2) (B1) (A1)
                 (B1) (A1) (A2) (B2) (A1) (A1) (B1) (B2) (A1) (B2)
                 (A1) (B2) (A1) (B1) (A2) (B2) (A1) (A1) (B2) (B1)
                 (A1) (B1) (A1) (B2) (B2) (A1) (A2) (A1) (B2) (A1)
                 (B1) (B2) (A1) (B2) (A1) (B2) (B2) (A1) (B1) (B1)
                 (A1) (B2) (B2) (A2) (A1) (A1) (B2) (A1) (B2) (A2)
                 (A1) (A1) (B1) (A2) (B2) (A1) (B1) (A1) (B2) (A1)
                 (B1) (A1) (B2) (A2) (A1) (B1) (B2) (B2) (B2) (A1)
                 (B2) (A2) (A1) (B1) (A1) (A1) (B2) (B2) (B2) (B1)
                 (A1) (A2) (A1) (B2) (B1) (A1) (B2) (B1) (A2) (B1)
                 (A1) (A2) (A1) (B1) (B2) (A1) (A2) (A1) (A2) (B1)
                 (B2) (A1) (A1) (A2) (B2) (A2) (B1) (B2) (A1) (B1)
                 (A2) (B2) (A1) (B2) (A1) (B2) (B2) (B1) (A1) (A2)
                 (B1) (A1) (A1) (A1) (B1) (B2) (B2) (A1) (B2) (B1)
                 (A1) (A2) (B2) (B1) (A1) (A2) (B2) (A1) (A1) (B1)
                 (B2) (A2) (A1) (B2) (B2) (B1) (A1) (A2) (A1) (B2)
                 (B1) (A1) (B2) (A1) (B1) (A2) (B2) (B1) (A1) (B2)
                 (B1) (A2) (A1) (A1) (B2) (A2) (B2) (A1) (B2) (A1)
                 (B1) (A1) (A2) (B2) (A1) (B2) (A1) (A2) (B2) (B1)
                 (A2) (A1) (A1) (B1) (B2) (A1) (B2) (A1) (B2) (A1)
                 (A1) (B2) (A1) (B2) (A1) (B2) (B2) (A1) (A1) (B2)
                 (A2) (B1) (B2) (A1) (A1) (B1) (B2) (A1) (A1) (B2)
                 (A2) (A1) (B2) (A1) (A1) (A1) (A2) (B1) (B2) (A1)
 The electronic state of the initial guess is 1-A1.
 Leave Link  401 at Wed Aug 21 03:45:56 2019, MaxMem=  524288000 cpu:       6.0
 (Enter /home/ubuntu/g09/l502.exe)
 Closed shell SCF:
 Requested convergence on RMS density matrix=1.00D-08 within 128 cycles.
 Requested convergence on MAX density matrix=1.00D-06.
 Requested convergence on             energy=1.00D-06.
 No special actions if energy rises.
 Using DIIS extrapolation, IDIIS=  1040.
 Integral symmetry usage will be decided dynamically.
       332554 words used for storage of precomputed grid.
 IEnd=      600806 IEndB=      600806 NGot=   524288000 MDV=   523785917
 LenX=   523785917 LenY=   523703680
 Fock matrices will be formed incrementally for  20 cycles.

 Cycle   1  Pass 1  IDiag  1:
 FoFCou: FMM=F IPFlag=           0 FMFlag=      100000 FMFlg1=           0
         NFxFlg=           0 DoJE=F BraDBF=F KetDBF=F FulRan=T
         Omega=  0.000000  0.000000  1.000000  0.000000  0.000000 ICntrl=       0 IOpCl=  0
         NMat0=    1 NMatS0=    1 NMatT0=    0 NMatD0=    1 NMtDS0=    0 NMtDT0=    0
         I1Cent=           0 NGrid=           0.
 Petite list used in FoFCou.
 E= -535.846628830920    
 DIIS: error= 2.43D-02 at cycle   1 NSaved=   1.
 NSaved= 1 IEnMin= 1 EnMin= -535.846628830920     IErMin= 1 ErrMin= 2.43D-02
 ErrMax= 2.43D-02 EMaxC= 1.00D-01 BMatC= 2.66D-01 BMatP= 2.66D-01
 IDIUse=3 WtCom= 7.57D-01 WtEn= 2.43D-01
 Coeff-Com:  0.100D+01
 Coeff-En:   0.100D+01
 Coeff:      0.100D+01
 Gap=     0.131 Goal=   None    Shift=    0.000
 GapD=    0.131 DampG=1.000 DampE=0.500 DampFc=0.5000 IDamp=-1.
 Damping current iteration by 5.00D-01
 RMSDP=3.42D-02 MaxDP=1.10D+00              OVMax= 3.32D-01

 Cycle   2  Pass 1  IDiag  1:
 RMSU=  6.98D-03    CP:  8.52D-01
 E= -535.899803051703     Delta-E=       -0.053174220783 Rises=F Damp=T
 DIIS: error= 1.36D-02 at cycle   2 NSaved=   2.
 NSaved= 2 IEnMin= 2 EnMin= -535.899803051703     IErMin= 2 ErrMin= 1.36D-02
 ErrMax= 1.36D-02 EMaxC= 1.00D-01 BMatC= 4.67D-02 BMatP= 2.66D-01
 IDIUse=3 WtCom= 8.64D-01 WtEn= 1.36D-01
 Coeff-Com:  0.261D+00 0.739D+00
 Coeff-En:   0.382D+00 0.618D+00
 Coeff:      0.278D+00 0.722D+00
 Gap=     0.158 Goal=   None    Shift=    0.000
 RMSDP=1.42D-02 MaxDP=5.55D-01 DE=-5.32D-02 OVMax= 2.28D-01

 Cycle   3  Pass 1  IDiag  1:
 RMSU=  3.28D-03    CP:  7.14D-01  1.34D+00
 E= -536.064194926594     Delta-E=       -0.164391874891 Rises=F Damp=F
 DIIS: error= 4.23D-03 at cycle   3 NSaved=   3.
 NSaved= 3 IEnMin= 3 EnMin= -536.064194926594     IErMin= 3 ErrMin= 4.23D-03
 ErrMax= 4.23D-03 EMaxC= 1.00D-01 BMatC= 7.37D-03 BMatP= 4.67D-02
 IDIUse=3 WtCom= 9.58D-01 WtEn= 4.23D-02
 Coeff-Com:  0.881D-01 0.298D+00 0.613D+00
 Coeff-En:   0.000D+00 0.000D+00 0.100D+01
 Coeff:      0.844D-01 0.286D+00 0.630D+00
 Gap=     0.176 Goal=   None    Shift=    0.000
 RMSDP=2.50D-03 MaxDP=1.21D-01 DE=-1.64D-01 OVMax= 3.48D-02

 Cycle   4  Pass 1  IDiag  1:
 RMSU=  1.13D-03    CP:  7.22D-01  1.18D+00  8.62D-01
 E= -536.069443866510     Delta-E=       -0.005248939917 Rises=F Damp=F
 DIIS: error= 2.04D-03 at cycle   4 NSaved=   4.
 NSaved= 4 IEnMin= 4 EnMin= -536.069443866510     IErMin= 4 ErrMin= 2.04D-03
 ErrMax= 2.04D-03 EMaxC= 1.00D-01 BMatC= 2.04D-03 BMatP= 7.37D-03
 IDIUse=3 WtCom= 9.80D-01 WtEn= 2.04D-02
 Coeff-Com:  0.219D-01 0.620D-01 0.354D+00 0.562D+00
 Coeff-En:   0.000D+00 0.000D+00 0.210D+00 0.790D+00
 Coeff:      0.215D-01 0.608D-01 0.351D+00 0.567D+00
 Gap=     0.173 Goal=   None    Shift=    0.000
 RMSDP=7.28D-04 MaxDP=3.48D-02 DE=-5.25D-03 OVMax= 1.78D-02

 Cycle   5  Pass 1  IDiag  1:
 RMSU=  2.95D-04    CP:  7.21D-01  1.20D+00  8.75D-01  6.69D-01
 E= -536.071233230879     Delta-E=       -0.001789364369 Rises=F Damp=F
 DIIS: error= 5.97D-04 at cycle   5 NSaved=   5.
 NSaved= 5 IEnMin= 5 EnMin= -536.071233230879     IErMin= 5 ErrMin= 5.97D-04
 ErrMax= 5.97D-04 EMaxC= 1.00D-01 BMatC= 1.56D-04 BMatP= 2.04D-03
 IDIUse=3 WtCom= 9.94D-01 WtEn= 5.97D-03
 Coeff-Com:  0.392D-02 0.461D-02 0.133D+00 0.298D+00 0.561D+00
 Coeff-En:   0.000D+00 0.000D+00 0.000D+00 0.000D+00 0.100D+01
 Coeff:      0.390D-02 0.459D-02 0.132D+00 0.296D+00 0.563D+00
 Gap=     0.173 Goal=   None    Shift=    0.000
 RMSDP=2.64D-04 MaxDP=1.19D-02 DE=-1.79D-03 OVMax= 5.27D-03

 Cycle   6  Pass 1  IDiag  1:
 RMSU=  1.10D-04    CP:  7.19D-01  1.20D+00  8.78D-01  7.27D-01  6.59D-01
 E= -536.071375555021     Delta-E=       -0.000142324141 Rises=F Damp=F
 DIIS: error= 2.07D-04 at cycle   6 NSaved=   6.
 NSaved= 6 IEnMin= 6 EnMin= -536.071375555021     IErMin= 6 ErrMin= 2.07D-04
 ErrMax= 2.07D-04 EMaxC= 1.00D-01 BMatC= 1.17D-05 BMatP= 1.56D-04
 IDIUse=3 WtCom= 9.98D-01 WtEn= 2.07D-03
 Coeff-Com:  0.575D-03-0.225D-02 0.409D-01 0.106D+00 0.287D+00 0.567D+00
 Coeff-En:   0.000D+00 0.000D+00 0.000D+00 0.000D+00 0.000D+00 0.100D+01
 Coeff:      0.574D-03-0.225D-02 0.408D-01 0.106D+00 0.287D+00 0.568D+00
 Gap=     0.173 Goal=   None    Shift=    0.000
 RMSDP=5.03D-05 MaxDP=2.34D-03 DE=-1.42D-04 OVMax= 1.88D-03

 Cycle   7  Pass 1  IDiag  1:
 RMSU=  2.49D-05    CP:  7.19D-01  1.20D+00  8.80D-01  7.22D-01  6.80D-01
                    CP:  8.03D-01
 E= -536.071386911463     Delta-E=       -0.000011356442 Rises=F Damp=F
 DIIS: error= 5.38D-05 at cycle   7 NSaved=   7.
 NSaved= 7 IEnMin= 7 EnMin= -536.071386911463     IErMin= 7 ErrMin= 5.38D-05
 ErrMax= 5.38D-05 EMaxC= 1.00D-01 BMatC= 9.49D-07 BMatP= 1.17D-05
 IDIUse=1 WtCom= 1.00D+00 WtEn= 0.00D+00
 Coeff-Com: -0.469D-06-0.174D-02 0.120D-01 0.364D-01 0.115D+00 0.305D+00
 Coeff-Com:  0.533D+00
 Coeff:     -0.469D-06-0.174D-02 0.120D-01 0.364D-01 0.115D+00 0.305D+00
 Coeff:      0.533D+00
 Gap=     0.173 Goal=   None    Shift=    0.000
 RMSDP=1.83D-05 MaxDP=4.74D-04 DE=-1.14D-05 OVMax= 4.14D-04

 Cycle   8  Pass 1  IDiag  1:
 RMSU=  7.61D-06    CP:  7.19D-01  1.20D+00  8.80D-01  7.21D-01  6.87D-01
                    CP:  8.22D-01  6.12D-01
 E= -536.071387880807     Delta-E=       -0.000000969345 Rises=F Damp=F
 DIIS: error= 8.03D-06 at cycle   8 NSaved=   8.
 NSaved= 8 IEnMin= 8 EnMin= -536.071387880807     IErMin= 8 ErrMin= 8.03D-06
 ErrMax= 8.03D-06 EMaxC= 1.00D-01 BMatC= 2.34D-08 BMatP= 9.49D-07
 IDIUse=1 WtCom= 1.00D+00 WtEn= 0.00D+00
 Coeff-Com: -0.299D-04-0.506D-03 0.172D-02 0.628D-02 0.216D-01 0.669D-01
 Coeff-Com:  0.184D+00 0.720D+00
 Coeff:     -0.299D-04-0.506D-03 0.172D-02 0.628D-02 0.216D-01 0.669D-01
 Coeff:      0.184D+00 0.720D+00
 Gap=     0.173 Goal=   None    Shift=    0.000
 RMSDP=3.58D-06 MaxDP=9.47D-05 DE=-9.69D-07 OVMax= 5.45D-05

 Cycle   9  Pass 1  IDiag  1:
 RMSU=  1.53D-06    CP:  7.19D-01  1.20D+00  8.80D-01  7.22D-01  6.88D-01
                    CP:  8.20D-01  6.49D-01  8.38D-01
 E= -536.071387897542     Delta-E=       -0.000000016735 Rises=F Damp=F
 DIIS: error= 5.74D-06 at cycle   9 NSaved=   9.
 NSaved= 9 IEnMin= 9 EnMin= -536.071387897542     IErMin= 9 ErrMin= 5.74D-06
 ErrMax= 5.74D-06 EMaxC= 1.00D-01 BMatC= 6.45D-09 BMatP= 2.34D-08
 IDIUse=1 WtCom= 1.00D+00 WtEn= 0.00D+00
 Coeff-Com: -0.503D-05-0.161D-03 0.128D-03 0.959D-03 0.388D-02 0.148D-01
 Coeff-Com:  0.617D-01 0.392D+00 0.527D+00
 Coeff:     -0.503D-05-0.161D-03 0.128D-03 0.959D-03 0.388D-02 0.148D-01
 Coeff:      0.617D-01 0.392D+00 0.527D+00
 Gap=     0.173 Goal=   None    Shift=    0.000
 RMSDP=1.00D-06 MaxDP=3.75D-05 DE=-1.67D-08 OVMax= 1.85D-05

 Cycle  10  Pass 1  IDiag  1:
 RMSU=  3.91D-07    CP:  7.19D-01  1.20D+00  8.80D-01  7.22D-01  6.87D-01
                    CP:  8.20D-01  6.49D-01  8.65D-01  7.90D-01
 E= -536.071387901683     Delta-E=       -0.000000004140 Rises=F Damp=F
 DIIS: error= 1.40D-06 at cycle  10 NSaved=  10.
 NSaved=10 IEnMin=10 EnMin= -536.071387901683     IErMin=10 ErrMin= 1.40D-06
 ErrMax= 1.40D-06 EMaxC= 1.00D-01 BMatC= 4.50D-10 BMatP= 6.45D-09
 IDIUse=1 WtCom= 1.00D+00 WtEn= 0.00D+00
 Coeff-Com:  0.498D-05-0.851D-05-0.155D-03-0.445D-03-0.136D-02-0.264D-02
 Coeff-Com:  0.178D-02 0.704D-01 0.239D+00 0.693D+00
 Coeff:      0.498D-05-0.851D-05-0.155D-03-0.445D-03-0.136D-02-0.264D-02
 Coeff:      0.178D-02 0.704D-01 0.239D+00 0.693D+00
 Gap=     0.173 Goal=   None    Shift=    0.000
 RMSDP=3.15D-07 MaxDP=1.30D-05 DE=-4.14D-09 OVMax= 3.45D-06

 Cycle  11  Pass 1  IDiag  1:
 RMSU=  1.33D-07    CP:  7.19D-01  1.20D+00  8.80D-01  7.22D-01  6.87D-01
                    CP:  8.21D-01  6.50D-01  8.75D-01  8.12D-01  7.72D-01
 E= -536.071387902007     Delta-E=       -0.000000000324 Rises=F Damp=F
 DIIS: error= 1.43D-07 at cycle  11 NSaved=  11.
 NSaved=11 IEnMin=11 EnMin= -536.071387902007     IErMin=11 ErrMin= 1.43D-07
 ErrMax= 1.43D-07 EMaxC= 1.00D-01 BMatC= 1.12D-11 BMatP= 4.50D-10
 IDIUse=1 WtCom= 1.00D+00 WtEn= 0.00D+00
 Coeff-Com:  0.281D-05 0.170D-06-0.483D-04-0.176D-03-0.574D-03-0.124D-02
 Coeff-Com: -0.130D-02 0.102D-01 0.591D-01 0.222D+00 0.712D+00
 Coeff:      0.281D-05 0.170D-06-0.483D-04-0.176D-03-0.574D-03-0.124D-02
 Coeff:     -0.130D-02 0.102D-01 0.591D-01 0.222D+00 0.712D+00
 Gap=     0.173 Goal=   None    Shift=    0.000
 RMSDP=6.93D-08 MaxDP=4.66D-06 DE=-3.24D-10 OVMax= 1.56D-06

 Cycle  12  Pass 1  IDiag  1:
 RMSU=  3.59D-08    CP:  7.19D-01  1.20D+00  8.80D-01  7.22D-01  6.87D-01
                    CP:  8.21D-01  6.50D-01  8.75D-01  8.21D-01  7.88D-01
                    CP:  9.51D-01
 E= -536.071387902009     Delta-E=       -0.000000000002 Rises=F Damp=F
 DIIS: error= 8.35D-08 at cycle  12 NSaved=  12.
 NSaved=12 IEnMin=12 EnMin= -536.071387902009     IErMin=12 ErrMin= 8.35D-08
 ErrMax= 8.35D-08 EMaxC= 1.00D-01 BMatC= 3.27D-12 BMatP= 1.12D-11
 IDIUse=1 WtCom= 1.00D+00 WtEn= 0.00D+00
 Coeff-Com:  0.106D-05 0.759D-06-0.634D-05-0.426D-04-0.147D-03-0.319D-03
 Coeff-Com: -0.960D-03-0.362D-02 0.594D-03 0.313D-01 0.404D+00 0.570D+00
 Coeff:      0.106D-05 0.759D-06-0.634D-05-0.426D-04-0.147D-03-0.319D-03
 Coeff:     -0.960D-03-0.362D-02 0.594D-03 0.313D-01 0.404D+00 0.570D+00
 Gap=     0.173 Goal=   None    Shift=    0.000
 RMSDP=2.84D-08 MaxDP=1.72D-06 DE=-1.59D-12 OVMax= 5.84D-07

 Cycle  13  Pass 1  IDiag  1:
 RMSU=  9.05D-09    CP:  7.19D-01  1.20D+00  8.80D-01  7.22D-01  6.87D-01
                    CP:  8.21D-01  6.50D-01  8.76D-01  8.20D-01  7.88D-01
                    CP:  1.00D+00  6.81D-01
 E= -536.071387902036     Delta-E=       -0.000000000028 Rises=F Damp=F
 DIIS: error= 7.22D-09 at cycle  13 NSaved=  13.
 NSaved=13 IEnMin=13 EnMin= -536.071387902036     IErMin=13 ErrMin= 7.22D-09
 ErrMax= 7.22D-09 EMaxC= 1.00D-01 BMatC= 2.10D-14 BMatP= 3.27D-12
 IDIUse=1 WtCom= 1.00D+00 WtEn= 0.00D+00
 Coeff-Com:  0.672D-07 0.781D-07 0.107D-05 0.220D-07 0.270D-05 0.694D-05
 Coeff-Com: -0.126D-03-0.868D-03-0.269D-02-0.505D-02 0.239D-01 0.762D-01
 Coeff-Com:  0.909D+00
 Coeff:      0.672D-07 0.781D-07 0.107D-05 0.220D-07 0.270D-05 0.694D-05
 Coeff:     -0.126D-03-0.868D-03-0.269D-02-0.505D-02 0.239D-01 0.762D-01
 Coeff:      0.909D+00
 Gap=     0.173 Goal=   None    Shift=    0.000
 RMSDP=4.16D-09 MaxDP=1.04D-07 DE=-2.75D-11 OVMax= 9.29D-08

 Error on total polarization charges =  0.01239
 SCF Done:  E(RB3LYP) =  -536.071387902     A.U. after   13 cycles
             Convg  =    0.4165D-08             -V/T =  2.0060
 KE= 5.328933290640D+02 PE=-2.240300515621D+03 EE= 6.788907167896D+02
 Leave Link  502 at Wed Aug 21 03:46:52 2019, MaxMem=  524288000 cpu:     392.8
 (Enter /home/ubuntu/g09/l601.exe)
 Copying SCF densities to generalized density rwf, IOpCl= 0 IROHF=0.

 **********************************************************************

            Population analysis using the SCF density.

 **********************************************************************

 Orbital symmetries:
       Occupied  (A1) (A1) (B2) (A1) (A1) (A1) (B2) (A1) (B2) (A1)
                 (A1) (A1) (B2) (A1) (A1) (B2) (A1) (B2) (A1) (A1)
                 (A1) (B1) (B2) (B2) (B1) (A1) (B2) (A1) (B2) (B1)
                 (B2) (A2) (A1) (B2) (A2) (B1)
       Virtual   (B1) (A2) (B1) (A1) (A1) (B2) (A1) (B2) (B1) (A1)
                 (A1) (B1) (A2) (B2) (A1) (A1) (B2) (B2) (A1) (B2)
                 (A1) (B1) (B1) (A2) (B2) (A1) (A1) (B1) (A1) (B2)
                 (B1) (A1) (A1) (A2) (A1) (B2) (B2) (B1) (B2) (A1)
                 (A1) (B2) (B2) (A1) (B2) (B1) (A1) (A1) (B2) (B1)
                 (A1) (B2) (A1) (B2) (A2) (A1) (B2) (A1) (B2) (A1)
                 (A2) (B1) (A2) (A1) (A1) (B2) (A1) (B2) (B1) (A1)
                 (B1) (A2) (B2) (A1) (A1) (B2) (B1) (A1) (B2) (B2)
                 (A2) (A1) (A1) (B1) (A1) (B2) (B2) (B2) (B1) (B2)
                 (A1) (B2) (B1) (A2) (A1) (B1) (B2) (A1) (A2) (B1)
                 (A2) (A1) (A1) (B1) (B2) (A1) (A2) (A2) (A1) (A1)
                 (B2) (B1) (A1) (A2) (B2) (A2) (B1) (B2) (A1) (B1)
                 (A2) (B2) (A1) (A1) (B2) (B2) (B2) (B1) (A1) (B1)
                 (A2) (A1) (A1) (B1) (A1) (B2) (B2) (A1) (B2) (B1)
                 (A1) (A2) (B2) (B1) (A1) (A2) (B2) (A1) (A1) (A2)
                 (B1) (B2) (A1) (B2) (B1) (B2) (A1) (A2) (A1) (B1)
                 (B2) (A1) (B2) (A1) (B1) (A2) (B1) (A1) (B2) (B2)
                 (A2) (A1) (B1) (A1) (B2) (A2) (B2) (A1) (B2) (A1)
                 (B1) (A1) (B2) (A2) (A1) (A1) (B2) (A2) (B1) (B2)
                 (A2) (A1) (A1) (B1) (A1) (B2) (B2) (A1) (B2) (A1)
                 (B2) (A1) (A1) (A1) (B2) (B2) (B2) (A1) (A1) (B2)
                 (A2) (B1) (B2) (A1) (A1) (B1) (B2) (A1) (A1) (B2)
                 (A2) (A1) (B2) (A1) (A1) (A1) (A2) (B1) (B2) (A1)
 The electronic state is 1-A1.
 Alpha  occ. eigenvalues --  -24.74587 -19.20117 -19.20117 -14.58856 -10.30639
 Alpha  occ. eigenvalues --  -10.26290 -10.23241 -10.23238 -10.22440 -10.22439
 Alpha  occ. eigenvalues --   -1.25572  -1.25106  -1.07857  -0.90676  -0.82294
 Alpha  occ. eigenvalues --   -0.79108  -0.71659  -0.65838  -0.61987  -0.58262
 Alpha  occ. eigenvalues --   -0.56581  -0.55419  -0.54455  -0.51518  -0.49428
 Alpha  occ. eigenvalues --   -0.47815  -0.46127  -0.44429  -0.43027  -0.39478
 Alpha  occ. eigenvalues --   -0.37827  -0.33863  -0.33588  -0.31799  -0.29239
 Alpha  occ. eigenvalues --   -0.28498
 Alpha virt. eigenvalues --   -0.11188  -0.04742  -0.01590  -0.00643   0.00897
 Alpha virt. eigenvalues --    0.01041   0.02978   0.03306   0.04973   0.05318
 Alpha virt. eigenvalues --    0.06747   0.07768   0.07897   0.08740   0.08873
 Alpha virt. eigenvalues --    0.09506   0.09632   0.10623   0.11288   0.11697
 Alpha virt. eigenvalues --    0.11710   0.11804   0.12397   0.12506   0.12912
 Alpha virt. eigenvalues --    0.13092   0.14327   0.15718   0.15744   0.16011
 Alpha virt. eigenvalues --    0.17013   0.18879   0.19827   0.20380   0.21573
 Alpha virt. eigenvalues --    0.21672   0.22782   0.23095   0.23141   0.23738
 Alpha virt. eigenvalues --    0.24730   0.25536   0.25906   0.26918   0.27116
 Alpha virt. eigenvalues --    0.28143   0.28739   0.29335   0.29373   0.29623
 Alpha virt. eigenvalues --    0.29898   0.30195   0.31074   0.31325   0.31438
 Alpha virt. eigenvalues --    0.32796   0.34245   0.34977   0.37207   0.37973
 Alpha virt. eigenvalues --    0.38343   0.39186   0.40213   0.40543   0.41087
 Alpha virt. eigenvalues --    0.42757   0.43363   0.43821   0.44259   0.47267
 Alpha virt. eigenvalues --    0.48675   0.49262   0.50223   0.50992   0.52933
 Alpha virt. eigenvalues --    0.53632   0.53893   0.55293   0.55435   0.56922
 Alpha virt. eigenvalues --    0.58801   0.58829   0.59051   0.59778   0.60108
 Alpha virt. eigenvalues --    0.61344   0.62421   0.63353   0.64401   0.65723
 Alpha virt. eigenvalues --    0.70049   0.70318   0.70954   0.71201   0.71789
 Alpha virt. eigenvalues --    0.73265   0.73414   0.73704   0.74041   0.74863
 Alpha virt. eigenvalues --    0.75586   0.76503   0.80095   0.80924   0.82955
 Alpha virt. eigenvalues --    0.83415   0.87380   0.87981   0.88935   0.91448
 Alpha virt. eigenvalues --    0.91690   0.92211   0.96001   0.99257   1.00167
 Alpha virt. eigenvalues --    1.02839   1.03546   1.04298   1.05593   1.07434
 Alpha virt. eigenvalues --    1.08735   1.10539   1.11720   1.14907   1.15545
 Alpha virt. eigenvalues --    1.18999   1.19778   1.20941   1.24125   1.24333
 Alpha virt. eigenvalues --    1.25763   1.27219   1.29545   1.29933   1.31003
 Alpha virt. eigenvalues --    1.32256   1.35390   1.37037   1.37622   1.38992
 Alpha virt. eigenvalues --    1.39945   1.40958   1.41766   1.43142   1.43823
 Alpha virt. eigenvalues --    1.45382   1.46251   1.47100   1.48123   1.49080
 Alpha virt. eigenvalues --    1.49771   1.51054   1.51929   1.52439   1.56478
 Alpha virt. eigenvalues --    1.57795   1.61324   1.61543   1.64677   1.66032
 Alpha virt. eigenvalues --    1.67487   1.68518   1.70918   1.71283   1.71614
 Alpha virt. eigenvalues --    1.72568   1.78449   1.79871   1.80276   1.81051
 Alpha virt. eigenvalues --    1.85508   1.85583   1.87973   1.88495   1.90093
 Alpha virt. eigenvalues --    1.91923   1.94824   1.96112   1.99174   2.01267
 Alpha virt. eigenvalues --    2.01642   2.04540   2.06366   2.07123   2.12176
 Alpha virt. eigenvalues --    2.14197   2.16011   2.17515   2.24882   2.26361
 Alpha virt. eigenvalues --    2.29624   2.30050   2.36238   2.37483   2.40785
 Alpha virt. eigenvalues --    2.42903   2.46374   2.50607   2.52794   2.60921
 Alpha virt. eigenvalues --    2.66140   2.68729   2.70890   2.77280   2.80790
 Alpha virt. eigenvalues --    2.93105   2.96433   2.99421   3.12158   3.25827
 Alpha virt. eigenvalues --    3.27111   3.27438   3.28942   3.33102   3.33780
 Alpha virt. eigenvalues --    3.37669   3.39196   3.41720   3.45166   3.57742
 Alpha virt. eigenvalues --    3.58620   3.77298   3.80463   4.04407   4.39547
 Alpha virt. eigenvalues --    4.54988   4.56627   4.56666   4.69589   4.75909
          Condensed to atoms (all electrons):
              1          2          3          4          5          6
     1  C   13.552223  -3.437649   2.018406  -3.069933   1.101334  -4.176344
     2  C   -3.437649  10.995394  -2.286199   1.885272  -3.069933   2.111065
     3  C    2.018406  -2.286199   8.827636  -2.286199   2.018406  -2.626831
     4  C   -3.069933   1.885272  -2.286199  10.995394  -3.437649   2.111065
     5  C    1.101334  -3.069933   2.018406  -3.437649  13.552223  -4.176344
     6  C   -4.176344   2.111065  -2.626831   2.111065  -4.176344  11.271074
     7  H   -1.951310   0.685340  -0.333617   0.168584  -0.086010   0.882286
     8  H    0.659273  -1.564400   0.709837  -0.062672   0.199330  -0.512373
     9  H    0.199330  -0.062672   0.709837  -1.564400   0.659273  -0.512373
    10  H   -0.086010   0.168584  -0.333617   0.685340  -1.951310   0.882286
    11  N    0.265945  -0.257044   0.160985  -0.257044   0.265945  -0.588473
    12  O    0.082244  -0.072994   0.000492  -0.031652  -0.007892   0.110315
    13  O   -0.007892  -0.031652   0.000492  -0.072994   0.082244   0.110315
    14  F   -0.153958   0.333320  -0.672225   0.333320  -0.153958   0.174002
              7          8          9         10         11         12
     1  C   -1.951310   0.659273   0.199330  -0.086010   0.265945   0.082244
     2  C    0.685340  -1.564400  -0.062672   0.168584  -0.257044  -0.072994
     3  C   -0.333617   0.709837   0.709837  -0.333617   0.160985   0.000492
     4  C    0.168584  -0.062672  -1.564400   0.685340  -0.257044  -0.031652
     5  C   -0.086010   0.199330   0.659273  -1.951310   0.265945  -0.007892
     6  C    0.882286  -0.512373  -0.512373   0.882286  -0.588473   0.110315
     7  H    2.815328  -0.213725   0.008154  -0.013995  -0.131089  -0.027041
     8  H   -0.213725   2.537757  -0.012586   0.008154   0.017838  -0.001498
     9  H    0.008154  -0.012586   2.537757  -0.213725   0.017838  -0.000591
    10  H   -0.013995   0.008154  -0.213725   2.815328  -0.131089  -0.009603
    11  N   -0.131089   0.017838   0.017838  -0.131089   7.932598  -0.513804
    12  O   -0.027041  -0.001498  -0.000591  -0.009603  -0.513804   9.260565
    13  O   -0.009603  -0.000591  -0.001498  -0.027041  -0.513804  -0.057256
    14  F   -0.000193  -0.082050  -0.082050  -0.000193  -0.005116   0.000085
             13         14
     1  C   -0.007892  -0.153958
     2  C   -0.031652   0.333320
     3  C    0.000492  -0.672225
     4  C   -0.072994   0.333320
     5  C    0.082244  -0.153958
     6  C    0.110315   0.174002
     7  H   -0.009603  -0.000193
     8  H   -0.000591  -0.082050
     9  H   -0.001498  -0.082050
    10  H   -0.027041  -0.000193
    11  N   -0.513804  -0.005116
    12  O   -0.057256   0.000085
    13  O    9.260565   0.000085
    14  F    0.000085   9.880442
 Mulliken atomic charges:
              1
     1  C    1.004342
     2  C    0.603568
     3  C    0.092598
     4  C    0.603568
     5  C    1.004342
     6  C    0.940329
     7  H   -0.793108
     8  H   -0.682295
     9  H   -0.682295
    10  H   -0.793108
    11  N    0.736314
    12  O   -0.731371
    13  O   -0.731371
    14  F   -0.571511
 Sum of Mulliken atomic charges =   0.00000
 Mulliken charges with hydrogens summed into heavy atoms:
              1
     1  C    0.211233
     2  C   -0.078728
     3  C    0.092598
     4  C   -0.078728
     5  C    0.211233
     6  C    0.940329
    11  N    0.736314
    12  O   -0.731371
    13  O   -0.731371
    14  F   -0.571511
 Sum of Mulliken charges with hydrogens summed into heavy atoms =   0.00000
 Electronic spatial extent (au):  <R**2>=           1523.5444
 Charge=              0.0000 electrons
 Dipole moment (field-independent basis, Debye):
    X=              0.0000    Y=              0.0000    Z=              4.2488  Tot=              4.2488
 Quadrupole moment (field-independent basis, Debye-Ang):
   XX=            -56.6532   YY=            -49.9281   ZZ=            -74.9251
   XY=              0.0000   XZ=              0.0000   YZ=              0.0000
 Traceless Quadrupole moment (field-independent basis, Debye-Ang):
   XX=              3.8489   YY=             10.5740   ZZ=            -14.4229
   XY=              0.0000   XZ=              0.0000   YZ=              0.0000
 Octapole moment (field-independent basis, Debye-Ang**2):
  XXX=              0.0000  YYY=              0.0000  ZZZ=             36.4695  XYY=              0.0000
  XXY=              0.0000  XXZ=             -1.9601  XZZ=              0.0000  YZZ=              0.0000
  YYZ=             18.7118  XYZ=              0.0000
 Hexadecapole moment (field-independent basis, Debye-Ang**3):
 XXXX=            -57.6352 YYYY=           -343.6185 ZZZZ=          -1620.9512 XXXY=              0.0000
 XXXZ=              0.0000 YYYX=              0.0000 YYYZ=              0.0000 ZZZX=              0.0000
 ZZZY=              0.0000 XXYY=            -80.0192 XXZZ=           -231.9224 YYZZ=           -296.3278
 XXYZ=              0.0000 YYXZ=              0.0000 ZZXY=              0.0000
 N-N= 4.924450818657D+02 E-N=-2.240300515676D+03  KE= 5.328933290640D+02
 Symmetry A1   KE= 3.522254776486D+02
 Symmetry A2   KE= 7.073056337876D+00
 Symmetry B1   KE= 1.443605734999D+01
 Symmetry B2   KE= 1.591587377275D+02
 No NMR shielding tensors so no spin-rotation constants.
 Leave Link  601 at Wed Aug 21 03:46:53 2019, MaxMem=  524288000 cpu:       2.0
 (Enter /home/ubuntu/g09/l701.exe)
 Compute integral first derivatives.
 ... and contract with generalized density number  0.
 D1PCM: C-PCM CHGder 1st derivatives, ID1Alg=3 FixD1E=F DoIter=F DoCFld=F I1PDM=0.
 GePol: Maximum number of non-zero 1st derivatives   =     225
 Leave Link  701 at Wed Aug 21 03:46:54 2019, MaxMem=  524288000 cpu:      10.8
 (Enter /home/ubuntu/g09/l702.exe)
 L702 exits ... SP integral derivatives will be done elsewhere.
 Leave Link  702 at Wed Aug 21 03:46:54 2019, MaxMem=  524288000 cpu:       0.1
 (Enter /home/ubuntu/g09/l703.exe)
 Compute integral first derivatives, UseDBF=F ICtDFT=           0.
 Integral derivatives from FoFDir, PRISM(SPDF).
 Calling FoFJK, ICntrl=      2127 FMM=F ISym2X=1 I1Cent= 0 IOpClX= 0 NMat=1 NMatS=1 NMatT=0.
 FoFCou: FMM=F IPFlag=           0 FMFlag=      100000 FMFlg1=         800
         NFxFlg=           0 DoJE=F BraDBF=F KetDBF=F FulRan=T
         Omega=  0.000000  0.000000  1.000000  0.000000  0.000000 ICntrl=    2127 IOpCl=  0
         NMat0=    1 NMatS0=    1 NMatT0=    0 NMatD0=    1 NMtDS0=    0 NMtDT0=    0
         I1Cent=           0 NGrid=           0.
 Petite list used in FoFCou.
 Leave Link  703 at Wed Aug 21 03:47:04 2019, MaxMem=  524288000 cpu:      71.6
 (Enter /home/ubuntu/g09/l716.exe)
 Dipole        = 3.54915433D-16-1.06581410D-14 1.67159268D+00
 ***** Axes restored to original set *****
 -------------------------------------------------------------------
 Center     Atomic                   Forces (Hartrees/Bohr)
 Number     Number              X              Y              Z
 -------------------------------------------------------------------
      1        6           0.000145457   -0.001047934    0.000000000
      2        6          -0.000204859   -0.000976885    0.000000000
      3        6           0.003451893    0.000000000    0.000000000
      4        6          -0.000204859    0.000976885    0.000000000
      5        6           0.000145457    0.001047934    0.000000000
      6        6           0.001752599    0.000000000    0.000000000
      7        1          -0.001219935   -0.000390755    0.000000000
      8        1           0.000538462   -0.000193695    0.000000000
      9        1           0.000538462    0.000193695    0.000000000
     10        1          -0.001219935    0.000390755    0.000000000
     11        7          -0.011602011    0.000000000    0.000000000
     12        8           0.004623360   -0.000772677    0.000000000
     13        8           0.004623360    0.000772677    0.000000000
     14        9          -0.001367451    0.000000000    0.000000000
 -------------------------------------------------------------------
 Cartesian Forces:  Max     0.011602011 RMS     0.002201605
 Leave Link  716 at Wed Aug 21 03:47:04 2019, MaxMem=  524288000 cpu:       0.1
 (Enter /home/ubuntu/g09/l103.exe)

 GradGradGradGradGradGradGradGradGradGradGradGradGradGradGradGradGradGrad
 Berny optimization.
 Internal  Forces:  Max     0.005779156 RMS     0.001224797
 Search for a local minimum.
 Step number   1 out of a maximum of   73
 All quantities printed in internal units (Hartrees-Bohrs-Radians)
 RMS Force = .12248D-02 SwitMx=.10000D-02 MixMth= 1
 Mixed Optimization -- RFO/linear search
 Second derivative matrix not updated -- first step.
 ITU=  0
     Eigenvalues ---    0.00726   0.00726   0.01717   0.02133   0.02148
     Eigenvalues ---    0.02151   0.02162   0.02172   0.02173   0.02174
     Eigenvalues ---    0.02175   0.16000   0.16000   0.16000   0.16000
     Eigenvalues ---    0.22000   0.23006   0.24000   0.25000   0.25000
     Eigenvalues ---    0.25000   0.25000   0.34983   0.34983   0.35164
     Eigenvalues ---    0.35164   0.35380   0.42268   0.42382   0.46212
     Eigenvalues ---    0.46437   0.46652   0.46711   0.54422   0.91505
     Eigenvalues ---    0.91505
 RFO step:  Lambda=-3.24159878D-04 EMin= 7.25733410D-03
 Linear search not attempted -- first point.
 Iteration  1 RMS(Cart)=  0.00527855 RMS(Int)=  0.00002976
 Iteration  2 RMS(Cart)=  0.00003009 RMS(Int)=  0.00000053
 Iteration  3 RMS(Cart)=  0.00000000 RMS(Int)=  0.00000053
 ClnCor:  largest displacement from symmetrization is 3.97D-10 for atom    14.
 Variable       Old X    -DE/DX   Delta X   Delta X   Delta X     New X
                                 (Linear)    (Quad)   (Total)
    R1        2.63403  -0.00138   0.00000  -0.00295  -0.00295   2.63109
    R2        2.64001   0.00137   0.00000   0.00308   0.00308   2.64308
    R3        2.05410  -0.00030   0.00000  -0.00086  -0.00086   2.05324
    R4        2.63323   0.00027   0.00000   0.00047   0.00048   2.63371
    R5        2.05703  -0.00012   0.00000  -0.00033  -0.00033   2.05669
    R6        2.63323   0.00027   0.00000   0.00047   0.00048   2.63371
    R7        2.55650   0.00137   0.00000   0.00251   0.00251   2.55901
    R8        2.63403  -0.00138   0.00000  -0.00295  -0.00295   2.63109
    R9        2.05703  -0.00012   0.00000  -0.00033  -0.00033   2.05669
   R10        2.64001   0.00137   0.00000   0.00308   0.00308   2.64308
   R11        2.05410  -0.00030   0.00000  -0.00086  -0.00086   2.05324
   R12        2.78362  -0.00236   0.00000  -0.00665  -0.00665   2.77697
   R13        2.32247   0.00284   0.00000   0.00310   0.00310   2.32557
   R14        2.32247   0.00284   0.00000   0.00310   0.00310   2.32557
    A1        2.07723  -0.00048   0.00000  -0.00177  -0.00177   2.07546
    A2        2.11735  -0.00104   0.00000  -0.00709  -0.00709   2.11026
    A3        2.08861   0.00152   0.00000   0.00886   0.00886   2.09747
    A4        2.06789  -0.00054   0.00000  -0.00246  -0.00245   2.06544
    A5        2.12146  -0.00031   0.00000  -0.00237  -0.00237   2.11909
    A6        2.09383   0.00084   0.00000   0.00482   0.00482   2.09865
    A7        2.14511   0.00142   0.00000   0.00547   0.00547   2.15059
    A8        2.06904  -0.00071   0.00000  -0.00274  -0.00274   2.06630
    A9        2.06904  -0.00071   0.00000  -0.00274  -0.00274   2.06630
   A10        2.06789  -0.00054   0.00000  -0.00246  -0.00245   2.06544
   A11        2.09383   0.00084   0.00000   0.00482   0.00482   2.09865
   A12        2.12146  -0.00031   0.00000  -0.00237  -0.00237   2.11909
   A13        2.07723  -0.00048   0.00000  -0.00177  -0.00177   2.07546
   A14        2.11735  -0.00104   0.00000  -0.00709  -0.00709   2.11026
   A15        2.08861   0.00152   0.00000   0.00886   0.00886   2.09747
   A16        2.13101   0.00061   0.00000   0.00298   0.00298   2.13399
   A17        2.07609  -0.00031   0.00000  -0.00149  -0.00149   2.07460
   A18        2.07609  -0.00031   0.00000  -0.00149  -0.00149   2.07460
   A19        2.05488   0.00289   0.00000   0.01154   0.01154   2.06642
   A20        2.05488   0.00289   0.00000   0.01154   0.01154   2.06642
   A21        2.17343  -0.00578   0.00000  -0.02309  -0.02309   2.15034
    D1        0.00000   0.00000   0.00000   0.00000   0.00000   0.00000
    D2        3.14159   0.00000   0.00000   0.00000   0.00000   3.14159
    D3        3.14159   0.00000   0.00000   0.00000   0.00000   3.14159
    D4        0.00000   0.00000   0.00000   0.00000   0.00000   0.00000
    D5        0.00000   0.00000   0.00000   0.00000   0.00000   0.00000
    D6        3.14159   0.00000   0.00000   0.00000   0.00000   3.14159
    D7        3.14159   0.00000   0.00000   0.00000   0.00000   3.14159
    D8        0.00000   0.00000   0.00000   0.00000   0.00000   0.00000
    D9        0.00000   0.00000   0.00000   0.00000   0.00000   0.00000
   D10        3.14159   0.00000   0.00000   0.00000   0.00000   3.14159
   D11        3.14159   0.00000   0.00000   0.00000   0.00000   3.14159
   D12        0.00000   0.00000   0.00000   0.00000   0.00000   0.00000
   D13        0.00000   0.00000   0.00000   0.00000   0.00000   0.00000
   D14        3.14159   0.00000   0.00000   0.00000   0.00000   3.14159
   D15        3.14159   0.00000   0.00000   0.00000   0.00000   3.14159
   D16        0.00000   0.00000   0.00000   0.00000   0.00000   0.00000
   D17        0.00000   0.00000   0.00000   0.00000   0.00000   0.00000
   D18        3.14159   0.00000   0.00000   0.00000   0.00000   3.14159
   D19        3.14159   0.00000   0.00000   0.00000   0.00000   3.14159
   D20        0.00000   0.00000   0.00000   0.00000   0.00000   0.00000
   D21        0.00000   0.00000   0.00000   0.00000   0.00000   0.00000
   D22        3.14159   0.00000   0.00000   0.00000   0.00000   3.14159
   D23        3.14159   0.00000   0.00000   0.00000   0.00000   3.14159
   D24        0.00000   0.00000   0.00000   0.00000   0.00000   0.00000
   D25        0.00000   0.00000   0.00000   0.00000   0.00000   0.00000
   D26        3.14159   0.00000   0.00000   0.00000   0.00000   3.14159
   D27        3.14159   0.00000   0.00000   0.00000   0.00000   3.14159
   D28        0.00000   0.00000   0.00000   0.00000   0.00000   0.00000
         Item               Value     Threshold  Converged?
 Maximum Force            0.005779     0.000450     NO 
 RMS     Force            0.001225     0.000300     NO 
 Maximum Displacement     0.015591     0.001800     NO 
 RMS     Displacement     0.005282     0.001200     NO 
 Predicted change in Energy=-1.622918D-04
 GradGradGradGradGradGradGradGradGradGradGradGradGradGradGradGradGradGrad

 Leave Link  103 at Wed Aug 21 03:47:04 2019, MaxMem=  524288000 cpu:       0.1
 (Enter /home/ubuntu/g09/l202.exe)
                          Input orientation:                          
 ---------------------------------------------------------------------
 Center     Atomic      Atomic             Coordinates (Angstroms)
 Number     Number       Type             X           Y           Z
 ---------------------------------------------------------------------
      1          6           0       -0.001871   -1.224882    0.000000
      2          6           0       -1.394183   -1.226079    0.000000
      3          6           0       -2.056851    0.000000    0.000000
      4          6           0       -1.394183    1.226079    0.000000
      5          6           0       -0.001871    1.224882    0.000000
      6          6           0        0.673342    0.000000    0.000000
      7          1           0        0.557050   -2.156630    0.000000
      8          1           0       -1.960674   -2.155383    0.000000
      9          1           0       -1.960674    2.155383    0.000000
     10          1           0        0.557050    2.156630    0.000000
     11          7           0        2.142853    0.000000    0.000000
     12          8           0        2.728121   -1.082557    0.000000
     13          8           0        2.728121    1.082557    0.000000
     14          9           0       -3.411020    0.000000    0.000000
 ---------------------------------------------------------------------
                    Distance matrix (angstroms):
                    1          2          3          4          5
     1  C    0.000000
     2  C    1.392312   0.000000
     3  C    2.392337   1.393699   0.000000
     4  C    2.818819   2.452157   1.393699   0.000000
     5  C    2.449764   2.818819   2.392337   1.392312   0.000000
     6  C    1.398660   2.403732   2.730193   2.403732   1.398660
     7  H    1.086530   2.161766   3.388736   3.905128   3.427392
     8  H    2.168580   1.088356   2.157528   3.428585   3.906801
     9  H    3.906801   3.428585   2.157528   1.088356   2.168580
    10  H    3.427392   3.905128   3.388736   2.161766   1.086530
    11  N    2.469854   3.743513   4.199704   3.743513   2.469854
    12  O    2.733700   4.124801   4.905903   4.724742   3.574512
    13  O    3.574512   4.724742   4.905903   4.124801   2.733700
    14  F    3.622517   2.360275   1.354169   2.360275   3.622517
                    6          7          8          9         10
     6  C    0.000000
     7  H    2.159763   0.000000
     8  H    3.403486   2.517724   0.000000
     9  H    3.403486   4.993234   4.310766   0.000000
    10  H    2.159763   4.313260   4.993234   2.517724   0.000000
    11  N    1.469510   2.676906   4.635149   4.635149   2.676906
    12  O    2.322508   2.422227   4.809963   5.698162   3.899472
    13  O    2.322508   3.899472   5.698162   4.809963   2.422227
    14  F    4.084362   4.516263   2.597918   2.597918   4.516263
                   11         12         13         14
    11  N    0.000000
    12  O    1.230638   0.000000
    13  O    1.230638   2.165114   0.000000
    14  F    5.553872   6.233857   6.233857   0.000000
 Stoichiometry    C6H4FNO2
 Framework group  C2V[C2(NCCF),SGV(C4H4O2)]
 Deg. of freedom    13
 Full point group                 C2V     NOp   4
 Largest Abelian subgroup         C2V     NOp   4
 Largest concise Abelian subgroup C2      NOp   2
                         Standard orientation:                         
 ---------------------------------------------------------------------
 Center     Atomic      Atomic             Coordinates (Angstroms)
 Number     Number       Type             X           Y           Z
 ---------------------------------------------------------------------
      1          6           0        0.000000    1.224882    0.003118
      2          6           0        0.000000    1.226079    1.395430
      3          6           0        0.000000    0.000000    2.058098
      4          6           0        0.000000   -1.226079    1.395430
      5          6           0        0.000000   -1.224882    0.003118
      6          6           0        0.000000    0.000000   -0.672095
      7          1           0        0.000000    2.156630   -0.555803
      8          1           0        0.000000    2.155383    1.961921
      9          1           0        0.000000   -2.155383    1.961921
     10          1           0        0.000000   -2.156630   -0.555803
     11          7           0        0.000000    0.000000   -2.141606
     12          8           0        0.000000    1.082557   -2.726874
     13          8           0        0.000000   -1.082557   -2.726874
     14          9           0        0.000000    0.000000    3.412267
 ---------------------------------------------------------------------
 Rotational constants (GHZ):      3.9385712      0.7962903      0.6623734
 Leave Link  202 at Wed Aug 21 03:47:04 2019, MaxMem=  524288000 cpu:       0.0
 (Enter /home/ubuntu/g09/l301.exe)
 Standard basis: Aug-CC-pVDZ (5D, 7F)
 Ernie: Thresh=  0.10000D-02 Tol=  0.10000D-05 Strict=F.
 Ernie:  20 primitive shells out of 278 were deleted.
 There are   106 symmetry adapted basis functions of A1  symmetry.
 There are    33 symmetry adapted basis functions of A2  symmetry.
 There are    45 symmetry adapted basis functions of B1  symmetry.
 There are    82 symmetry adapted basis functions of B2  symmetry.
 Integral buffers will be    131072 words long.
 Raffenetti 2 integral format.
 Two-electron integral symmetry is turned on.
   266 basis functions,   474 primitive gaussians,   286 cartesian basis functions
    36 alpha electrons       36 beta electrons
       nuclear repulsion energy       492.3140348397 Hartrees.
 IExCor=  402 DFT=T Ex+Corr=B3LYP ExCW=0 ScaHFX=  0.200000
 ScaDFX=  0.800000  0.720000  1.000000  0.810000 ScalE2=  1.000000  1.000000
 IRadAn=      5 IRanWt=     -1 IRanGd=            0 ICorTp=0
 NAtoms=   14 NActive=   14 NUniq=    9 SFac= 2.42D+00 NAtFMM=   50 NAOKFM=F Big=F
 ------------------------------------------------------------------------------
 Polarizable Continuum Model (PCM)
 =================================
 Model                : C-PCM.
 Atomic radii         : UFF (Universal Force Field).
 Polarization charges : Total charges.
 Charge compensation  : None.
 Solution method      : Matrix inversion.
 Cavity type          : Scaled VdW (van der Waals Surface) (Alpha=1.100).
 Cavity algorithm     : GePol (No added spheres)
                        Default sphere list used, NSphG=   14.
                        Lebedev-Laikov grids with approx.  5.0 points / Ang**2.
                        Smoothing algorithm: Karplus/York (Gamma=1.0000).
                        Polarization charges: spherical gaussians, with
                                              point-specific exponents (IZeta= 3).
                        Self-potential: point-specific (ISelfS= 7).
                        Self-field    : sphere-specific E.n sum rule (ISelfD= 2).
 1st derivatives      : Analytical E(r).r(x)/FMM algorithm (CHGder, D1EAlg=3).
                        Cavity 1st derivative terms included.
 Solvent              : Water, Eps=  78.355300 Eps(inf)=   1.777849
 ------------------------------------------------------------------------------
 Spheres list:
 ISph  on   Nord    Re0     Alpha      Xe            Ye            Ze
    1   C      1    1.926   1.100      0.000000      1.224882      0.003118
    2   C      2    1.926   1.100      0.000000      1.226079      1.395430
    3   C      3    1.926   1.100      0.000000      0.000000      2.058098
    4   C      4    1.926   1.100      0.000000     -1.226079      1.395430
    5   C      5    1.926   1.100      0.000000     -1.224882      0.003118
    6   C      6    1.926   1.100      0.000000      0.000000     -0.672095
    7   H      7    1.443   1.100      0.000000      2.156630     -0.555803
    8   H      8    1.443   1.100      0.000000      2.155383      1.961921
    9   H      9    1.443   1.100      0.000000     -2.155383      1.961921
   10   H     10    1.443   1.100      0.000000     -2.156630     -0.555803
   11   N     11    1.830   1.100      0.000000      0.000000     -2.141606
   12   O     12    1.750   1.100      0.000000      1.082557     -2.726874
   13   O     13    1.750   1.100      0.000000     -1.082557     -2.726874
   14   F     14    1.682   1.100      0.000000      0.000000      3.412267
 ------------------------------------------------------------------------------
 GePol: Number of generator spheres                  =      14
 GePol: Total number of spheres                      =      14
 GePol: Number of exposed spheres                    =      14 (100.00%)
 GePol: Number of points                             =    1396
 GePol: Average weight of points                     =       0.13
 GePol: Minimum weight of points                     =   0.92D-11
 GePol: Maximum weight of points                     =    0.20577
 GePol: Number of points with low weight             =      65
 GePol: Fraction of low-weight points (<1% of avg)   =       4.66%
 GePol: Cavity surface area                          =    179.225 Ang**2
 GePol: Cavity volume                                =    175.899 Ang**3
 Leave Link  301 at Wed Aug 21 03:47:04 2019, MaxMem=  524288000 cpu:       0.4
 (Enter /home/ubuntu/g09/l302.exe)
 NPDir=0 NMtPBC=     1 NCelOv=     1 NCel=       1 NClECP=     1 NCelD=      1
         NCelK=      1 NCelE2=     1 NClLst=     1 CellRange=     0.0.
 One-electron integrals computed using PRISM.
 One-electron integral symmetry used in STVInt
 NBasis=   266 RedAO= T  NBF=   106    33    45    82
 NBsUse=   266 1.00D-06 NBFU=   106    33    45    82
 Precomputing XC quadrature grid using
 IXCGrd= 2 IRadAn=           5 IRanWt=          -1 IRanGd=           0 AccXCQ= 0.00D+00.
 NRdTot=    1200 NPtTot=      324098 NUsed=      332693 NTot=      332725
 NSgBfM=   285   285   285   285   285 NAtAll=    14    14.
 Leave Link  302 at Wed Aug 21 03:47:05 2019, MaxMem=  524288000 cpu:       2.0
 (Enter /home/ubuntu/g09/l303.exe)
 DipDrv:  MaxL=1.
 Leave Link  303 at Wed Aug 21 03:47:05 2019, MaxMem=  524288000 cpu:       0.3
 (Enter /home/ubuntu/g09/l401.exe)
 Initial guess read from the read-write file.
 B after Tr=     0.000000    0.000000    0.000000
         Rot=    1.000000    0.000000    0.000000    0.000000 Ang=   0.00 deg.
 Guess basis will be translated and rotated to current coordinates.
 Initial guess orbital symmetries:
       Occupied  (A1) (A1) (B2) (A1) (A1) (A1) (B2) (A1) (B2) (A1)
                 (A1) (A1) (B2) (A1) (A1) (B2) (A1) (B2) (A1) (A1)
                 (A1) (B1) (B2) (B2) (B1) (A1) (B2) (A1) (B2) (B1)
                 (B2) (A2) (A1) (B2) (A2) (B1)
       Virtual   (B1) (A2) (B1) (A1) (A1) (B2) (A1) (B2) (B1) (A1)
                 (A1) (B1) (A2) (B2) (A1) (A1) (B2) (B2) (A1) (B2)
                 (A1) (B1) (B1) (A2) (B2) (A1) (A1) (B1) (A1) (B2)
                 (B1) (A1) (A1) (A2) (A1) (B2) (B2) (B1) (B2) (A1)
                 (A1) (B2) (B2) (A1) (B2) (B1) (A1) (A1) (B2) (B1)
                 (A1) (B2) (A1) (B2) (A2) (A1) (B2) (A1) (B2) (A1)
                 (A2) (B1) (A2) (A1) (A1) (B2) (A1) (B2) (B1) (A1)
                 (B1) (A2) (B2) (A1) (A1) (B2) (B1) (A1) (B2) (B2)
                 (A2) (A1) (A1) (B1) (A1) (B2) (B2) (B2) (B1) (B2)
                 (A1) (B2) (B1) (A2) (A1) (B1) (B2) (A1) (A2) (B1)
                 (A2) (A1) (A1) (B1) (B2) (A1) (A2) (A2) (A1) (A1)
                 (B2) (B1) (A1) (A2) (B2) (A2) (B1) (B2) (A1) (B1)
                 (A2) (B2) (A1) (A1) (B2) (B2) (B2) (B1) (A1) (B1)
                 (A2) (A1) (A1) (B1) (A1) (B2) (B2) (A1) (B2) (B1)
                 (A1) (A2) (B2) (B1) (A1) (A2) (B2) (A1) (A1) (A2)
                 (B1) (B2) (A1) (B2) (B1) (B2) (A1) (A2) (A1) (B1)
                 (B2) (A1) (B2) (A1) (B1) (A2) (B1) (A1) (B2) (B2)
                 (A2) (A1) (B1) (A1) (B2) (A2) (B2) (A1) (B2) (A1)
                 (B1) (A1) (B2) (A2) (A1) (A1) (B2) (A2) (B1) (B2)
                 (A2) (A1) (A1) (B1) (A1) (B2) (B2) (A1) (B2) (A1)
                 (B2) (A1) (A1) (A1) (B2) (B2) (B2) (A1) (A1) (B2)
                 (A2) (B1) (B2) (A1) (A1) (B1) (B2) (A1) (A1) (B2)
                 (A2) (A1) (B2) (A1) (A1) (A1) (A2) (B1) (B2) (A1)
 The electronic state of the initial guess is 1-A1.
 Leave Link  401 at Wed Aug 21 03:47:05 2019, MaxMem=  524288000 cpu:       1.7
 (Enter /home/ubuntu/g09/l502.exe)
 Closed shell SCF:
 Requested convergence on RMS density matrix=1.00D-08 within 128 cycles.
 Requested convergence on MAX density matrix=1.00D-06.
 Requested convergence on             energy=1.00D-06.
 No special actions if energy rises.
 Using DIIS extrapolation, IDIIS=  1040.
 Integral symmetry usage will be decided dynamically.
       332554 words used for storage of precomputed grid.
 IEnd=      600806 IEndB=      600806 NGot=   524288000 MDV=   523785917
 LenX=   523785917 LenY=   523703680
 Fock matrices will be formed incrementally for  20 cycles.

 Cycle   1  Pass 1  IDiag  1:
 FoFCou: FMM=F IPFlag=           0 FMFlag=      100000 FMFlg1=           0
         NFxFlg=           0 DoJE=F BraDBF=F KetDBF=F FulRan=T
         Omega=  0.000000  0.000000  1.000000  0.000000  0.000000 ICntrl=       0 IOpCl=  0
         NMat0=    1 NMatS0=    1 NMatT0=    0 NMatD0=    1 NMtDS0=    0 NMtDT0=    0
         I1Cent=           0 NGrid=           0.
 Petite list used in FoFCou.
 E= -536.071238853540    
 DIIS: error= 1.42D-03 at cycle   1 NSaved=   1.
 NSaved= 1 IEnMin= 1 EnMin= -536.071238853540     IErMin= 1 ErrMin= 1.42D-03
 ErrMax= 1.42D-03 EMaxC= 1.00D-01 BMatC= 4.33D-04 BMatP= 4.33D-04
 IDIUse=3 WtCom= 9.86D-01 WtEn= 1.42D-02
 Coeff-Com:  0.100D+01
 Coeff-En:   0.100D+01
 Coeff:      0.100D+01
 Gap=     0.172 Goal=   None    Shift=    0.000
 GapD=    0.172 DampG=1.000 DampE=1.000 DampFc=1.0000 IDamp=-1.
 RMSDP=1.57D-03 MaxDP=5.78D-02              OVMax= 6.28D-03

 Cycle   2  Pass 1  IDiag  1:
 RMSU=  7.98D-04    CP:  1.02D+00
 E= -536.071523383173     Delta-E=       -0.000284529633 Rises=F Damp=F
 DIIS: error= 1.61D-04 at cycle   2 NSaved=   2.
 NSaved= 2 IEnMin= 2 EnMin= -536.071523383173     IErMin= 2 ErrMin= 1.61D-04
 ErrMax= 1.61D-04 EMaxC= 1.00D-01 BMatC= 1.01D-05 BMatP= 4.33D-04
 IDIUse=3 WtCom= 9.98D-01 WtEn= 1.61D-03
 Coeff-Com: -0.595D-02 0.101D+01
 Coeff-En:   0.000D+00 0.100D+01
 Coeff:     -0.594D-02 0.101D+01
 Gap=     0.173 Goal=   None    Shift=    0.000
 RMSDP=1.06D-04 MaxDP=2.63D-03 DE=-2.85D-04 OVMax= 2.45D-03

 Cycle   3  Pass 1  IDiag  1:
 RMSU=  7.44D-05    CP:  1.02D+00  1.01D+00
 E= -536.071512435678     Delta-E=        0.000010947495 Rises=F Damp=F
 DIIS: error= 2.64D-04 at cycle   3 NSaved=   3.
 NSaved= 3 IEnMin= 2 EnMin= -536.071523383173     IErMin= 2 ErrMin= 1.61D-04
 ErrMax= 2.64D-04 EMaxC= 1.00D-01 BMatC= 2.23D-05 BMatP= 1.01D-05
 IDIUse=3 WtCom= 3.81D-01 WtEn= 6.19D-01
 Coeff-Com: -0.197D-01 0.622D+00 0.398D+00
 Coeff-En:   0.000D+00 0.670D+00 0.330D+00
 Coeff:     -0.749D-02 0.651D+00 0.356D+00
 Gap=     0.173 Goal=   None    Shift=    0.000
 RMSDP=5.22D-05 MaxDP=2.19D-03 DE= 1.09D-05 OVMax= 1.57D-03

 Cycle   4  Pass 1  IDiag  1:
 RMSU=  2.31D-05    CP:  1.02D+00  1.01D+00  6.24D-01
 E= -536.071532963554     Delta-E=       -0.000020527876 Rises=F Damp=F
 DIIS: error= 2.35D-05 at cycle   4 NSaved=   4.
 NSaved= 4 IEnMin= 4 EnMin= -536.071532963554     IErMin= 4 ErrMin= 2.35D-05
 ErrMax= 2.35D-05 EMaxC= 1.00D-01 BMatC= 2.89D-07 BMatP= 1.01D-05
 IDIUse=1 WtCom= 1.00D+00 WtEn= 0.00D+00
 Coeff-Com: -0.648D-02 0.181D+00 0.116D+00 0.710D+00
 Coeff:     -0.648D-02 0.181D+00 0.116D+00 0.710D+00
 Gap=     0.173 Goal=   None    Shift=    0.000
 RMSDP=1.65D-05 MaxDP=4.43D-04 DE=-2.05D-05 OVMax= 3.14D-04

 Cycle   5  Pass 1  IDiag  1:
 RMSU=  8.18D-06    CP:  1.02D+00  1.01D+00  5.14D-01  9.33D-01
 E= -536.071533079469     Delta-E=       -0.000000115916 Rises=F Damp=F
 DIIS: error= 2.02D-05 at cycle   5 NSaved=   5.
 NSaved= 5 IEnMin= 5 EnMin= -536.071533079469     IErMin= 5 ErrMin= 2.02D-05
 ErrMax= 2.02D-05 EMaxC= 1.00D-01 BMatC= 1.73D-07 BMatP= 2.89D-07
 IDIUse=1 WtCom= 1.00D+00 WtEn= 0.00D+00
 Coeff-Com: -0.186D-02 0.406D-01 0.269D-01 0.433D+00 0.501D+00
 Coeff:     -0.186D-02 0.406D-01 0.269D-01 0.433D+00 0.501D+00
 Gap=     0.173 Goal=   None    Shift=    0.000
 RMSDP=6.86D-06 MaxDP=1.75D-04 DE=-1.16D-07 OVMax= 1.22D-04

 Cycle   6  Pass 1  IDiag  1:
 RMSU=  1.98D-06    CP:  1.02D+00  1.01D+00  5.60D-01  9.73D-01  6.90D-01
 E= -536.071533221918     Delta-E=       -0.000000142449 Rises=F Damp=F
 DIIS: error= 2.86D-06 at cycle   6 NSaved=   6.
 NSaved= 6 IEnMin= 6 EnMin= -536.071533221918     IErMin= 6 ErrMin= 2.86D-06
 ErrMax= 2.86D-06 EMaxC= 1.00D-01 BMatC= 3.73D-09 BMatP= 1.73D-07
 IDIUse=1 WtCom= 1.00D+00 WtEn= 0.00D+00
 Coeff-Com: -0.232D-03-0.250D-02 0.543D-04 0.118D+00 0.189D+00 0.696D+00
 Coeff:     -0.232D-03-0.250D-02 0.543D-04 0.118D+00 0.189D+00 0.696D+00
 Gap=     0.173 Goal=   None    Shift=    0.000
 RMSDP=8.63D-07 MaxDP=3.17D-05 DE=-1.42D-07 OVMax= 1.70D-05

 Cycle   7  Pass 1  IDiag  1:
 RMSU=  4.95D-07    CP:  1.02D+00  1.01D+00  5.59D-01  9.82D-01  7.03D-01
                    CP:  9.01D-01
 E= -536.071533223750     Delta-E=       -0.000000001831 Rises=F Damp=F
 DIIS: error= 1.99D-06 at cycle   7 NSaved=   7.
 NSaved= 7 IEnMin= 7 EnMin= -536.071533223750     IErMin= 7 ErrMin= 1.99D-06
 ErrMax= 1.99D-06 EMaxC= 1.00D-01 BMatC= 1.26D-09 BMatP= 3.73D-09
 IDIUse=1 WtCom= 1.00D+00 WtEn= 0.00D+00
 Coeff-Com:  0.616D-04-0.671D-02-0.307D-02 0.265D-01 0.618D-01 0.433D+00
 Coeff-Com:  0.488D+00
 Coeff:      0.616D-04-0.671D-02-0.307D-02 0.265D-01 0.618D-01 0.433D+00
 Coeff:      0.488D+00
 Gap=     0.173 Goal=   None    Shift=    0.000
 RMSDP=3.57D-07 MaxDP=2.08D-05 DE=-1.83D-09 OVMax= 6.83D-06

 Cycle   8  Pass 1  IDiag  1:
 RMSU=  1.70D-07    CP:  1.02D+00  1.01D+00  5.60D-01  9.82D-01  7.14D-01
                    CP:  8.64D-01  7.14D-01
 E= -536.071533224641     Delta-E=       -0.000000000892 Rises=F Damp=F
 DIIS: error= 2.04D-07 at cycle   8 NSaved=   8.
 NSaved= 8 IEnMin= 8 EnMin= -536.071533224641     IErMin= 8 ErrMin= 2.04D-07
 ErrMax= 2.04D-07 EMaxC= 1.00D-01 BMatC= 1.65D-11 BMatP= 1.26D-09
 IDIUse=1 WtCom= 1.00D+00 WtEn= 0.00D+00
 Coeff-Com:  0.336D-04-0.229D-02-0.957D-03 0.475D-02 0.114D-01 0.124D+00
 Coeff-Com:  0.170D+00 0.693D+00
 Coeff:      0.336D-04-0.229D-02-0.957D-03 0.475D-02 0.114D-01 0.124D+00
 Coeff:      0.170D+00 0.693D+00
 Gap=     0.173 Goal=   None    Shift=    0.000
 RMSDP=8.04D-08 MaxDP=3.09D-06 DE=-8.92D-10 OVMax= 1.46D-06

 Cycle   9  Pass 1  IDiag  1:
 RMSU=  3.70D-08    CP:  1.02D+00  1.01D+00  5.60D-01  9.83D-01  7.12D-01
                    CP:  8.78D-01  7.20D-01  9.04D-01
 E= -536.071533224635     Delta-E=        0.000000000006 Rises=F Damp=F
 DIIS: error= 1.15D-07 at cycle   9 NSaved=   9.
 NSaved= 9 IEnMin= 8 EnMin= -536.071533224641     IErMin= 9 ErrMin= 1.15D-07
 ErrMax= 1.15D-07 EMaxC= 1.00D-01 BMatC= 2.38D-12 BMatP= 1.65D-11
 IDIUse=1 WtCom= 1.00D+00 WtEn= 0.00D+00
 Coeff-Com:  0.110D-04-0.562D-03-0.185D-03 0.480D-03 0.408D-03 0.276D-01
 Coeff-Com:  0.437D-01 0.326D+00 0.603D+00
 Coeff:      0.110D-04-0.562D-03-0.185D-03 0.480D-03 0.408D-03 0.276D-01
 Coeff:      0.437D-01 0.326D+00 0.603D+00
 Gap=     0.173 Goal=   None    Shift=    0.000
 RMSDP=3.40D-08 MaxDP=1.10D-06 DE= 5.91D-12 OVMax= 1.09D-06

 Cycle  10  Pass 1  IDiag  1:
 RMSU=  1.63D-08    CP:  1.02D+00  1.01D+00  5.60D-01  9.83D-01  7.12D-01
                    CP:  8.76D-01  7.22D-01  9.37D-01  7.91D-01
 E= -536.071533224662     Delta-E=       -0.000000000027 Rises=F Damp=F
 DIIS: error= 3.67D-08 at cycle  10 NSaved=  10.
 NSaved=10 IEnMin=10 EnMin= -536.071533224662     IErMin=10 ErrMin= 3.67D-08
 ErrMax= 3.67D-08 EMaxC= 1.00D-01 BMatC= 3.46D-13 BMatP= 2.38D-12
 IDIUse=1 WtCom= 1.00D+00 WtEn= 0.00D+00
 Coeff-Com:  0.115D-05 0.272D-04 0.321D-04-0.325D-03-0.141D-02-0.278D-02
 Coeff-Com: -0.218D-02 0.541D-01 0.309D+00 0.643D+00
 Coeff:      0.115D-05 0.272D-04 0.321D-04-0.325D-03-0.141D-02-0.278D-02
 Coeff:     -0.218D-02 0.541D-01 0.309D+00 0.643D+00
 Gap=     0.173 Goal=   None    Shift=    0.000
 RMSDP=1.03D-08 MaxDP=3.48D-07 DE=-2.71D-11 OVMax= 2.87D-07

 Cycle  11  Pass 1  IDiag  1:
 RMSU=  5.06D-09    CP:  1.02D+00  1.01D+00  5.60D-01  9.83D-01  7.11D-01
                    CP:  8.77D-01  7.22D-01  9.39D-01  8.23D-01  9.57D-01
 E= -536.071533224648     Delta-E=        0.000000000014 Rises=F Damp=F
 DIIS: error= 8.30D-09 at cycle  11 NSaved=  11.
 NSaved=11 IEnMin=10 EnMin= -536.071533224662     IErMin=11 ErrMin= 8.30D-09
 ErrMax= 8.30D-09 EMaxC= 1.00D-01 BMatC= 2.96D-14 BMatP= 3.46D-13
 IDIUse=1 WtCom= 1.00D+00 WtEn= 0.00D+00
 Coeff-Com: -0.475D-06 0.741D-04 0.347D-04-0.246D-03-0.835D-03-0.452D-02
 Coeff-Com: -0.636D-02-0.109D-01 0.100D+00 0.314D+00 0.608D+00
 Coeff:     -0.475D-06 0.741D-04 0.347D-04-0.246D-03-0.835D-03-0.452D-02
 Coeff:     -0.636D-02-0.109D-01 0.100D+00 0.314D+00 0.608D+00
 Gap=     0.173 Goal=   None    Shift=    0.000
 RMSDP=3.60D-09 MaxDP=1.62D-07 DE= 1.41D-11 OVMax= 5.65D-08

 Error on total polarization charges =  0.01238
 SCF Done:  E(RB3LYP) =  -536.071533225     A.U. after   11 cycles
             Convg  =    0.3602D-08             -V/T =  2.0060
 KE= 5.328889279526D+02 PE=-2.240038249211D+03 EE= 6.787637531942D+02
 Leave Link  502 at Wed Aug 21 03:47:52 2019, MaxMem=  524288000 cpu:     329.7
 (Enter /home/ubuntu/g09/l701.exe)
 Compute integral first derivatives.
 ... and contract with generalized density number  0.
 D1PCM: C-PCM CHGder 1st derivatives, ID1Alg=3 FixD1E=F DoIter=F DoCFld=F I1PDM=0.
[...]
   R11        2.05295   0.00004   0.00000   0.00012   0.00012   2.05307
   R12        2.76715  -0.00009   0.00000  -0.00046  -0.00046   2.76669
   R13        2.32903  -0.00007   0.00000  -0.00006  -0.00006   2.32897
   R14        2.32903  -0.00007   0.00000  -0.00006  -0.00006   2.32897
    A1        2.07604   0.00003   0.00000   0.00023   0.00023   2.07627
    A2        2.10813   0.00001   0.00000   0.00019   0.00019   2.10832
    A3        2.09902  -0.00005   0.00000  -0.00042  -0.00042   2.09860
    A4        2.06514  -0.00001   0.00000  -0.00002  -0.00002   2.06512
    A5        2.11850  -0.00001   0.00000  -0.00005  -0.00005   2.11846
    A6        2.09954   0.00001   0.00000   0.00006   0.00006   2.09961
    A7        2.15109   0.00000   0.00000  -0.00005  -0.00005   2.15104
    A8        2.06605   0.00000   0.00000   0.00003   0.00003   2.06607
    A9        2.06605   0.00000   0.00000   0.00003   0.00003   2.06607
   A10        2.06514  -0.00001   0.00000  -0.00002  -0.00002   2.06512
   A11        2.09954   0.00001   0.00000   0.00006   0.00006   2.09961
   A12        2.11850  -0.00001   0.00000  -0.00005  -0.00005   2.11846
   A13        2.07604   0.00003   0.00000   0.00023   0.00023   2.07627
   A14        2.10813   0.00001   0.00000   0.00019   0.00019   2.10832
   A15        2.09902  -0.00005   0.00000  -0.00042  -0.00042   2.09860
   A16        2.13293  -0.00006   0.00000  -0.00037  -0.00037   2.13256
   A17        2.07513   0.00003   0.00000   0.00019   0.00019   2.07531
   A18        2.07513   0.00003   0.00000   0.00019   0.00019   2.07531
   A19        2.06463  -0.00001   0.00000  -0.00002  -0.00002   2.06462
   A20        2.06463  -0.00001   0.00000  -0.00002  -0.00002   2.06462
   A21        2.15392   0.00002   0.00000   0.00003   0.00003   2.15395
    D1        0.00000   0.00000   0.00000   0.00000   0.00000   0.00000
    D2        3.14159   0.00000   0.00000   0.00000   0.00000   3.14159
    D3        3.14159   0.00000   0.00000   0.00000   0.00000   3.14159
    D4        0.00000   0.00000   0.00000   0.00000   0.00000   0.00000
    D5        0.00000   0.00000   0.00000   0.00000   0.00000   0.00000
    D6        3.14159   0.00000   0.00000   0.00000   0.00000   3.14159
    D7        3.14159   0.00000   0.00000   0.00000   0.00000   3.14159
    D8        0.00000   0.00000   0.00000   0.00000   0.00000   0.00000
    D9        0.00000   0.00000   0.00000   0.00000   0.00000   0.00000
   D10        3.14159   0.00000   0.00000   0.00000   0.00000   3.14159
   D11        3.14159   0.00000   0.00000   0.00000   0.00000   3.14159
   D12        0.00000   0.00000   0.00000   0.00000   0.00000   0.00000
   D13        0.00000   0.00000   0.00000   0.00000   0.00000   0.00000
   D14        3.14159   0.00000   0.00000   0.00000   0.00000   3.14159
   D15        3.14159   0.00000   0.00000   0.00000   0.00000   3.14159
   D16        0.00000   0.00000   0.00000   0.00000   0.00000   0.00000
   D17        0.00000   0.00000   0.00000   0.00000   0.00000   0.00000
   D18        3.14159   0.00000   0.00000   0.00000   0.00000   3.14159
   D19        3.14159   0.00000   0.00000   0.00000   0.00000   3.14159
   D20        0.00000   0.00000   0.00000   0.00000   0.00000   0.00000
   D21        0.00000   0.00000   0.00000   0.00000   0.00000   0.00000
   D22        3.14159   0.00000   0.00000   0.00000   0.00000   3.14159
   D23        3.14159   0.00000   0.00000   0.00000   0.00000   3.14159
   D24        0.00000   0.00000   0.00000   0.00000   0.00000   0.00000
   D25        0.00000   0.00000   0.00000   0.00000   0.00000   0.00000
   D26        3.14159   0.00000   0.00000   0.00000   0.00000   3.14159
   D27        3.14159   0.00000   0.00000   0.00000   0.00000   3.14159
   D28        0.00000   0.00000   0.00000   0.00000   0.00000   0.00000
         Item               Value     Threshold  Converged?
 Maximum Force            0.000127     0.000450     YES
 RMS     Force            0.000035     0.000300     YES
 Maximum Displacement     0.000271     0.001800     YES
 RMS     Displacement     0.000110     0.001200     YES
 Predicted change in Energy=-1.339073D-07
 Optimization completed.
    -- Stationary point found.
                           ----------------------------
                           !   Optimized Parameters   !
                           ! (Angstroms and Degrees)  !
 --------------------------                            --------------------------
 ! Name  Definition              Value          Derivative Info.                !
 --------------------------------------------------------------------------------
 ! R1    R(1,2)                  1.3929         -DE/DX =   -0.0001              !
 ! R2    R(1,6)                  1.3988         -DE/DX =    0.0                 !
 ! R3    R(1,7)                  1.0864         -DE/DX =    0.0                 !
 ! R4    R(2,3)                  1.3934         -DE/DX =    0.0                 !
 ! R5    R(2,8)                  1.0882         -DE/DX =    0.0                 !
 ! R6    R(3,4)                  1.3934         -DE/DX =    0.0                 !
 ! R7    R(3,14)                 1.3554         -DE/DX =   -0.0001              !
 ! R8    R(4,5)                  1.3929         -DE/DX =   -0.0001              !
 ! R9    R(4,9)                  1.0882         -DE/DX =    0.0                 !
 ! R10   R(5,6)                  1.3988         -DE/DX =    0.0                 !
 ! R11   R(5,10)                 1.0864         -DE/DX =    0.0                 !
 ! R12   R(6,11)                 1.4643         -DE/DX =   -0.0001              !
 ! R13   R(11,12)                1.2325         -DE/DX =   -0.0001              !
 ! R14   R(11,13)                1.2325         -DE/DX =   -0.0001              !
 ! A1    A(2,1,6)              118.9482         -DE/DX =    0.0                 !
 ! A2    A(2,1,7)              120.7871         -DE/DX =    0.0                 !
 ! A3    A(6,1,7)              120.2648         -DE/DX =    0.0                 !
 ! A4    A(1,2,3)              118.3238         -DE/DX =    0.0                 !
 ! A5    A(1,2,8)              121.3814         -DE/DX =    0.0                 !
 ! A6    A(3,2,8)              120.2949         -DE/DX =    0.0                 !
 ! A7    A(2,3,4)              123.2482         -DE/DX =    0.0                 !
 ! A8    A(2,3,14)             118.3759         -DE/DX =    0.0                 !
 ! A9    A(4,3,14)             118.3759         -DE/DX =    0.0                 !
 ! A10   A(3,4,5)              118.3238         -DE/DX =    0.0                 !
 ! A11   A(3,4,9)              120.2949         -DE/DX =    0.0                 !
 ! A12   A(5,4,9)              121.3814         -DE/DX =    0.0                 !
 ! A13   A(4,5,6)              118.9482         -DE/DX =    0.0                 !
 ! A14   A(4,5,10)             120.7871         -DE/DX =    0.0                 !
 ! A15   A(6,5,10)             120.2648         -DE/DX =    0.0                 !
 ! A16   A(1,6,5)              122.2079         -DE/DX =   -0.0001              !
 ! A17   A(1,6,11)             118.896          -DE/DX =    0.0                 !
 ! A18   A(5,6,11)             118.896          -DE/DX =    0.0                 !
 ! A19   A(6,11,12)            118.2947         -DE/DX =    0.0                 !
 ! A20   A(6,11,13)            118.2947         -DE/DX =    0.0                 !
 ! A21   A(12,11,13)           123.4107         -DE/DX =    0.0                 !
 ! D1    D(6,1,2,3)              0.0            -DE/DX =    0.0                 !
 ! D2    D(6,1,2,8)            180.0            -DE/DX =    0.0                 !
 ! D3    D(7,1,2,3)            180.0            -DE/DX =    0.0                 !
 ! D4    D(7,1,2,8)              0.0            -DE/DX =    0.0                 !
 ! D5    D(2,1,6,5)              0.0            -DE/DX =    0.0                 !
 ! D6    D(2,1,6,11)           180.0            -DE/DX =    0.0                 !
 ! D7    D(7,1,6,5)            180.0            -DE/DX =    0.0                 !
 ! D8    D(7,1,6,11)             0.0            -DE/DX =    0.0                 !
 ! D9    D(1,2,3,4)              0.0            -DE/DX =    0.0                 !
 ! D10   D(1,2,3,14)           180.0            -DE/DX =    0.0                 !
 ! D11   D(8,2,3,4)            180.0            -DE/DX =    0.0                 !
 ! D12   D(8,2,3,14)             0.0            -DE/DX =    0.0                 !
 ! D13   D(2,3,4,5)              0.0            -DE/DX =    0.0                 !
 ! D14   D(2,3,4,9)            180.0            -DE/DX =    0.0                 !
 ! D15   D(14,3,4,5)           180.0            -DE/DX =    0.0                 !
 ! D16   D(14,3,4,9)             0.0            -DE/DX =    0.0                 !
 ! D17   D(3,4,5,6)              0.0            -DE/DX =    0.0                 !
 ! D18   D(3,4,5,10)           180.0            -DE/DX =    0.0                 !
 ! D19   D(9,4,5,6)            180.0            -DE/DX =    0.0                 !
 ! D20   D(9,4,5,10)             0.0            -DE/DX =    0.0                 !
 ! D21   D(4,5,6,1)              0.0            -DE/DX =    0.0                 !
 ! D22   D(4,5,6,11)           180.0            -DE/DX =    0.0                 !
 ! D23   D(10,5,6,1)           180.0            -DE/DX =    0.0                 !
 ! D24   D(10,5,6,11)            0.0            -DE/DX =    0.0                 !
 ! D25   D(1,6,11,12)            0.0            -DE/DX =    0.0                 !
 ! D26   D(1,6,11,13)          180.0            -DE/DX =    0.0                 !
 ! D27   D(5,6,11,12)          180.0            -DE/DX =    0.0                 !
 ! D28   D(5,6,11,13)            0.0            -DE/DX =    0.0                 !
 --------------------------------------------------------------------------------
 GradGradGradGradGradGradGradGradGradGradGradGradGradGradGradGradGradGrad

 Leave Link  103 at Wed Aug 21 03:59:05 2019, MaxMem=  524288000 cpu:       0.1
 (Enter /home/ubuntu/g09/l9999.exe)
 1\1\GINC-LC06-3-2\Freq\RB3LYP\Aug-CC-pVDZ\C6H4F1N1O2\UBUNTU\21-Aug-201
 9\0\\#P Geom=AllCheck Guess=TCheck SCRF=Check GenChk RB3LYP/Aug-CC-pVD
 Z Freq\\p-NO2-Ph-F-RB3LYP-aug-cc-pVDZ--\\0,1\C,-0.000350821,-1.2246770
 894,0.\C,-1.3932597913,-1.2259438254,0.\C,-2.055458462,0.,0.\C,-1.3932
 597913,1.2259438254,0.\C,-0.000350821,1.2246770894,0.\C,0.6755970509,0
 .,0.\H,0.5565565438,-2.1574475538,0.\H,-1.9590603286,-2.1554528297,0.\
 H,-1.9590603286,2.1554528297,0.\H,0.5565565438,2.1574475538,0.\N,2.139
 9074398,0.,0.\O,2.7241063633,-1.0852170854,0.\O,2.7241063633,1.0852170
 854,0.\F,-3.4108199611,0.,0.\\Version=EM64L-G09RevB.01\State=1-A1\HF=-
 536.0715614\RMSD=1.274e-09\RMSF=7.523e-05\ZeroPoint=0.0941483\Thermal=
 0.1042938\Dipole=-1.7302833,0.,0.\DipoleDeriv=0.4355321,-0.0739401,0.,
 0.3199515,-0.0095492,0.,0.,0.,-0.0644353,-0.5054616,0.1676802,0.,0.439
 5987,-0.1146371,0.,0.,0.,-0.1683915,2.2392559,0.,0.,0.,0.5820513,0.,0.
 ,0.,0.1788035,-0.5054616,-0.1676803,0.,-0.4395987,-0.1146372,0.,0.,0.,
 -0.1683915,0.4355321,0.0739402,0.,-0.3199515,-0.0095491,0.,0.,0.,-0.06
 44353,-1.013421,0.,0.,0.,0.0043277,0.,0.,0.,0.0234521,0.144206,0.04008
 25,0.,0.030195,0.0831431,0.,0.,0.,0.1753232,0.0636841,-0.0493576,0.,-0
 .06561,0.0435981,0.,0.,0.,0.1934626,0.0636841,0.0493577,0.,0.06561,0.0
 435981,0.,0.,0.,0.1934626,0.144206,-0.0400824,0.,-0.030195,0.0831431,0
 .,0.,0.,0.1753232,2.9250028,0.,0.,0.,2.2457222,0.,0.,0.,0.3052234,-1.2
 098971,0.5384609,0.,0.5266066,-1.2880919,0.,0.,0.,-0.3084784,-1.209897
 2,-0.5384609,0.,-0.5266066,-1.2880919,0.,0.,0.,-0.3084784,-2.0069647,0
 .,0.,0.,-0.2610271,0.,0.,0.,-0.1624402\Polar=173.3220236,0.,136.633679
 3,0.,0.,65.334217\PG=C02V [C2(N1C1C1F1),SGV(C4H4O2)]\NImag=0\\0.701558
 76,-0.04661009,0.72147557,0.,0.,0.13938840,-0.35471799,0.02971872,0.,0
 .70506768,-0.03432931,-0.12449711,0.,0.04566758,0.72687806,0.,0.,-0.06
 204525,0.,0.,0.12730337,-0.03241805,0.02568898,0.,-0.14247346,0.110700
 53,0.,0.61590940,0.07989453,0.03988540,0.,0.03785812,-0.30260384,0.,0.
 ,0.70704921,0.,0.,0.00317750,0.,0.,-0.06908346,0.,0.,0.15592025,-0.044
 13007,-0.02985074,0.,0.05881758,-0.01969341,0.,-0.14247346,-0.03785812
 ,0.,0.70506768,-0.02498561,-0.01769162,0.,0.01969341,-0.04737893,0.,-0
 .11070053,-0.30260384,0.,-0.04566758,0.72687806,0.,0.,-0.00251567,0.,0
 .,0.01104258,0.,0.,-0.06908346,0.,0.,0.12730337,0.05422957,0.02060112,
 0.,-0.04413007,0.02498561,0.,-0.03241805,-0.07989453,0.,-0.35471799,0.
 03432931,0.,0.70155876,-0.02060112,-0.05482050,0.,0.02985074,-0.017691
 62,0.,-0.02568898,0.03988540,0.,-0.02971872,-0.12449711,0.,0.04661009,
 0.72147557,0.,0.,0.00889613,0.,0.,-0.00251567,0.,0.,0.00317750,0.,0.,-
 0.06204525,0.,0.,0.13938840,-0.14277673,-0.10237362,0.,-0.03567991,-0.
 01988785,0.,0.00776002,0.,0.,-0.03567991,0.01988785,0.,-0.14277674,0.1
 0237361,0.,0.54122771,-0.05027838,-0.29104666,0.,-0.06709893,0.0312246
 5,0.,0.,-0.06941250,0.,0.06709893,0.03122465,0.,0.05027838,-0.29104666
 ,0.,0.,0.74918909,0.,0.,-0.06323576,0.,0.,0.00731130,0.,0.,-0.00784969
 ,0.,0.,0.00731129,0.,0.,-0.06323576,0.,0.,0.13866772,-0.12959968,0.129
 40669,0.,-0.01003114,0.02550222,0.,-0.00349386,-0.00159572,0.,-0.00067
 472,-0.00040512,0.,-0.00153526,-0.00329601,0.,0.01210161,-0.01246045,0
 .,0.13544908,0.12809019,-0.27732880,0.,-0.00316592,0.00589852,0.,-0.00
 119910,0.00116200,0.,-0.00044561,0.00044064,0.,-0.00395161,-0.00266283
 ,0.,0.01471239,-0.01708645,0.,-0.13818111,0.28810309,0.,0.,-0.03841303
 ,0.,0.,0.00532354,0.,0.,0.00805238,0.,0.,-0.00146527,0.,0.,0.00453448,
 0.,0.,0.00488876,0.,0.,0.02536470,-0.01083817,-0.02615062,0.,-0.131531
 82,-0.12897787,0.,0.00931995,0.01432413,0.,-0.00130046,0.00323004,0.,-
 0.00070133,0.00039364,0.,-0.00418791,0.00168202,0.,0.00140447,0.000123
 27,0.,0.13590528,0.00306520,0.00536406,0.,-0.12800158,-0.27172848,0.,-
 0.01678530,-0.01736030,0.,0.00350991,-0.00290408,0.,0.00101467,0.00002
 698,0.,0.00093917,0.00163766,0.,-0.00009308,0.00056319,0.,0.13755422,0
 .28234770,0.,0.,0.00317819,0.,0.,-0.03474563,0.,0.,0.00525393,0.,0.,0.
 00459467,0.,0.,-0.00094770,0.,0.,0.00689656,0.,0.,-0.00458022,0.,0.,0.
 02405720,-0.00070133,-0.00039364,0.,-0.00130046,-0.00323004,0.,0.00931
 995,-0.01432413,0.,-0.13153182,0.12897787,0.,-0.01083817,0.02615062,0.
 ,-0.00418791,-0.00168203,0.,0.00003870,0.00009223,0.,0.00049500,-0.000
 69551,0.,0.13590528,-0.00101467,0.00002698,0.,-0.00350991,-0.00290408,
 0.,0.01678530,-0.01736030,0.,0.12800158,-0.27172848,0.,-0.00306520,0.0
 0536406,0.,-0.00093917,0.00163766,0.,0.00007615,-0.00000228,0.,0.00069
 551,-0.00069445,0.,-0.13755422,0.28234770,0.,0.,-0.00094770,0.,0.,0.00
 459467,0.,0.,0.00525393,0.,0.,-0.03474563,0.,0.,0.00317819,0.,0.,0.006
 89656,0.,0.,-0.00039121,0.,0.,0.00007936,0.,0.,0.02405720,-0.00153526,
 0.00329601,0.,-0.00067472,0.00040512,0.,-0.00349386,0.00159572,0.,-0.0
 1003114,-0.02550222,0.,-0.12959968,-0.12940669,0.,0.01210161,0.0124604
 5,0.,0.00062810,0.00074574,0.,0.00003870,-0.00007615,0.,0.00140447,0.0
 0009308,0.,0.13544908,0.00395161,-0.00266283,0.,0.00044561,0.00044064,
 0.,0.00119910,0.00116200,0.,0.00316592,0.00589852,0.,-0.12809019,-0.27
 732880,0.,-0.01471239,-0.01708645,0.,-0.00074574,-0.00069438,0.,-0.000
 09223,-0.00000228,0.,-0.00012327,0.00056319,0.,0.13818111,0.28810309,0
 .,0.,0.00453448,0.,0.,-0.00146527,0.,0.,0.00805238,0.,0.,0.00532354,0.
 ,0.,-0.03841303,0.,0.,0.00488876,0.,0.,0.00073238,0.,0.,-0.00039121,0.
 ,0.,-0.00458022,0.,0.,0.02536470,-0.04239212,-0.02288917,0.,0.01300569
 ,-0.00918232,0.,-0.01456126,0.,0.,0.01300569,0.00918232,0.,-0.04239211
 ,0.02288918,0.,-0.11660187,0.,0.,0.00017392,0.00286001,0.,0.00038835,0
 .00059594,0.,0.00038835,-0.00059594,0.,0.00017392,-0.00286001,0.,0.630
 43911,-0.02567655,0.01240582,0.,-0.00519050,-0.00570931,0.,0.,-0.00617
 642,0.,0.00519051,-0.00570930,0.,0.02567654,0.01240580,0.,0.,-0.109067
 82,0.,0.00041806,-0.00287696,0.,-0.00151310,0.00041969,0.,0.00151310,0
 .00041969,0.,-0.00041806,-0.00287696,0.,-0.00000002,0.88085307,0.,0.,-
 0.00379628,0.,0.,0.00814178,0.,0.,-0.00045589,0.,0.,0.00814176,0.,0.,-
 0.00379628,0.,0.,-0.08078502,0.,0.,-0.00422589,0.,0.,0.00104381,0.,0.,
 0.00104381,0.,0.,-0.00422589,0.,0.,0.23492732,-0.00115227,0.00336548,0
 .,-0.00146385,0.00233038,0.,0.00455079,0.00215679,0.,-0.00487727,0.000
 14384,0.,-0.00251319,-0.00869038,0.,-0.03957308,0.04945942,0.,-0.00341
 678,0.00087304,0.,-0.00019222,-0.00016651,0.,-0.00093879,-0.00006424,0
 .,0.00058552,0.00003777,0.,-0.22847588,0.16356430,0.,0.23499084,-0.010
 39098,-0.00778341,0.,0.00350231,-0.00059872,0.,-0.00399772,0.00014805,
 0.,0.00290436,0.00194326,0.,-0.00167109,0.00474053,0.,0.03768997,-0.01
 184886,0.,-0.00094195,0.00305727,0.,0.00015317,0.00003770,0.,0.0002969
 8,-0.00001298,0.,-0.00090117,0.00108379,0.,0.16521188,-0.38711444,0.,-
 0.20402926,0.52572683,0.,0.,0.00113523,0.,0.,-0.00075212,0.,0.,0.00011
 316,0.,0.,-0.00120208,0.,0.,0.00388846,0.,0.,0.01910607,0.,0.,0.000381
 15,0.,0.,-0.00000488,0.,0.,-0.00051703,0.,0.,0.00026760,0.,0.,-0.07734
 754,0.,0.,0.02801387,-0.00251319,0.00869038,0.,-0.00487727,-0.00014384
 ,0.,0.00455079,-0.00215679,0.,-0.00146385,-0.00233038,0.,-0.00115227,-
 0.00336548,0.,-0.03957308,-0.04945942,0.,0.00058552,-0.00003777,0.,-0.
 00093879,0.00006424,0.,-0.00019222,0.00016651,0.,-0.00341678,-0.000873
 04,0.,-0.22847588,-0.16356429,0.,0.04763306,0.00885774,0.,0.23499084,0
 .00167109,0.00474053,0.,-0.00290436,0.00194326,0.,0.00399772,0.0001480
 5,0.,-0.00350231,-0.00059872,0.,0.01039098,-0.00778341,0.,-0.03768998,
 -0.01184886,0.,0.00090117,0.00108379,0.,-0.00029698,-0.00001298,0.,-0.
 00015317,0.00003770,0.,0.00094195,0.00305727,0.,-0.16521188,-0.3871144
 3,0.,-0.00885774,-0.12969461,0.,0.20402926,0.52572683,0.,0.,0.00388846
 ,0.,0.,-0.00120208,0.,0.,0.00011316,0.,0.,-0.00075212,0.,0.,0.00113523
 ,0.,0.,0.01910607,0.,0.,0.00026760,0.,0.,-0.00051703,0.,0.,-0.00000488
 ,0.,0.,0.00038115,0.,0.,-0.07734755,0.,0.,0.02680645,0.,0.,0.02801387,
 0.00698652,0.00750051,0.,-0.05001025,0.00585319,0.,-0.28007891,0.,0.,-
 0.05001024,-0.00585318,0.,0.00698652,-0.00750051,0.,-0.01215384,0.,0.,
 -0.00162996,-0.00051574,0.,0.00213895,-0.00092523,0.,0.00213895,0.0009
 2523,0.,-0.00162996,0.00051574,0.,0.01532405,0.,0.,-0.00515688,0.00331
 576,0.,-0.00515688,-0.00331576,0.,0.37225194,-0.00278592,-0.00806744,0
 .,0.04313471,0.00672698,0.,0.,-0.07392291,0.,-0.04313471,0.00672697,0.
 ,0.00278592,-0.00806744,0.,0.,0.00353052,0.,0.00141489,0.00034321,0.,-
 0.00112523,0.00230561,0.,0.00112523,0.00230560,0.,-0.00141489,0.000343
 21,0.,0.,0.00014159,0.,-0.00012289,0.00031558,0.,0.00012289,0.00031558
 ,0.,0.,0.06700294,0.,0.,0.00675532,0.,0.,0.00809220,0.,0.,-0.04264168,
 0.,0.,0.00809220,0.,0.,0.00675532,0.,0.,0.00003312,0.,0.,-0.00046937,0
 .,0.,-0.00391707,0.,0.,-0.00391707,0.,0.,-0.00046938,0.,0.,-0.00131816
 ,0.,0.,0.00011167,0.,0.,0.00011167,0.,0.,0.02278123\\0.00024829,-0.000
 01354,0.,-0.00012367,0.00001329,0.,0.00006486,0.,0.,-0.00012367,-0.000
 01329,0.,0.00024829,0.00001354,0.,-0.00024430,0.,0.,-0.00004521,0.0000
 1654,0.,-0.00000247,0.00001575,0.,-0.00000247,-0.00001575,0.,-0.000045
 21,-0.00001654,0.,0.00000198,0.,0.,0.00004472,-0.00005343,0.,0.0000447
 2,0.00005343,0.,-0.00006585,0.,0.\\\@


 LET US LEARN TO DREAM, GENTLEMEN, THEN PERHAPS WE SHALL
 DISCOVER THE TRUTH;  BUT LET US BEWARE OF PUBLISHING
 OUR DREAMS ABROAD BEFORE THEY HAVE BEEN SCRUTINIZED
 BY OUR VIGILANT INTELLECT ... LET US ALWAYS ALLOW
 THE FRUIT TO HANG UNTIL IT IS RIPE.  UNRIPE FRUIT
 BRINGS EVEN THE GROWER BUT LITTLE PROFIT; IT DAMAGES
 THE HEALTH OF THOSE WHO CONSUME IT; IT ENDANGERS
 PARTICULARLY THE YOUTH WHO CANNOT YET DISTINGUISH
 BETWEEN RIPE AND UNRIPE FRUIT.

                                  -- KEKULE, 1890
 Job cpu time:  0 days  1 hours  4 minutes 31.8 seconds.
 File lengths (MBytes):  RWF=    105 Int=      0 D2E=      0 Chk=      9 Scr=      1
 Normal termination of Gaussian 09 at Wed Aug 21 03:59:05 2019.
