 Entering Gaussian System, Link 0=/home/ubuntu/g09/g09
 Input=p-CH3O-Ph-N2-OTf-RB3LYP-aug-cc-pVDZ-T348-Water.gjf
 Output=p-CH3O-Ph-N2-OTf-RB3LYP-aug-cc-pVDZ-T348-Water.log
 Initial command:
 /home/ubuntu/g09/l1.exe /home/ubuntu/g09/Gau-7329.inp -scrdir=/home/ubuntu/g09/
 Entering Link 1 = /home/ubuntu/g09/l1.exe PID=      7331.
  
 Copyright (c) 1988,1990,1992,1993,1995,1998,2003,2009,2010,
            Gaussian, Inc.  All Rights Reserved.
  
 This is part of the Gaussian(R) 09 program.  It is based on
 the Gaussian(R) 03 system (copyright 2003, Gaussian, Inc.),
 the Gaussian(R) 98 system (copyright 1998, Gaussian, Inc.),
 the Gaussian(R) 94 system (copyright 1995, Gaussian, Inc.),
 the Gaussian 92(TM) system (copyright 1992, Gaussian, Inc.),
 the Gaussian 90(TM) system (copyright 1990, Gaussian, Inc.),
 the Gaussian 88(TM) system (copyright 1988, Gaussian, Inc.),
 the Gaussian 86(TM) system (copyright 1986, Carnegie Mellon
 University), and the Gaussian 82(TM) system (copyright 1983,
 Carnegie Mellon University). Gaussian is a federally registered
 trademark of Gaussian, Inc.
  
 This software contains proprietary and confidential information,
 including trade secrets, belonging to Gaussian, Inc.
  
 This software is provided under written license and may be
 used, copied, transmitted, or stored only in accord with that
 written license.
  
 The following legend is applicable only to US Government
 contracts under FAR:
  
                    RESTRICTED RIGHTS LEGEND
  
 Use, reproduction and disclosure by the US Government is
 subject to restrictions as set forth in subparagraphs (a)
 and (c) of the Commercial Computer Software - Restricted
 Rights clause in FAR 52.227-19.
  
 Gaussian, Inc.
 340 Quinnipiac St., Bldg. 40, Wallingford CT 06492
  
  
 ---------------------------------------------------------------
 Warning -- This program may not be used in any manner that
 competes with the business of Gaussian, Inc. or will provide
 assistance to any competitor of Gaussian, Inc.  The licensee
 of this program is prohibited from giving any competitor of
 Gaussian, Inc. access to this program.  By using this program,
 the user acknowledges that Gaussian, Inc. is engaged in the
 business of creating and licensing software in the field of
 computational chemistry and represents and warrants to the
 licensee that it is not a competitor of Gaussian, Inc. and that
 it will not use this program in any manner prohibited above.
 ---------------------------------------------------------------
  

 Cite this work as:
 Gaussian 09, Revision B.01,
 M. J. Frisch, G. W. Trucks, H. B. Schlegel, G. E. Scuseria, 
 M. A. Robb, J. R. Cheeseman, G. Scalmani, V. Barone, B. Mennucci, 
 G. A. Petersson, H. Nakatsuji, M. Caricato, X. Li, H. P. Hratchian, 
 A. F. Izmaylov, J. Bloino, G. Zheng, J. L. Sonnenberg, M. Hada, 
 M. Ehara, K. Toyota, R. Fukuda, J. Hasegawa, M. Ishida, T. Nakajima, 
 Y. Honda, O. Kitao, H. Nakai, T. Vreven, J. A. Montgomery, Jr., 
 J. E. Peralta, F. Ogliaro, M. Bearpark, J. J. Heyd, E. Brothers, 
 K. N. Kudin, V. N. Staroverov, T. Keith, R. Kobayashi, J. Normand, 
 K. Raghavachari, A. Rendell, J. C. Burant, S. S. Iyengar, J. Tomasi, 
 M. Cossi, N. Rega, J. M. Millam, M. Klene, J. E. Knox, J. B. Cross, 
 V. Bakken, C. Adamo, J. Jaramillo, R. Gomperts, R. E. Stratmann, 
 O. Yazyev, A. J. Austin, R. Cammi, C. Pomelli, J. W. Ochterski, 
 R. L. Martin, K. Morokuma, V. G. Zakrzewski, G. A. Voth, 
 P. Salvador, J. J. Dannenberg, S. Dapprich, A. D. Daniels, 
 O. Farkas, J. B. Foresman, J. V. Ortiz, J. Cioslowski, 
 and D. J. Fox, Gaussian, Inc., Wallingford CT, 2010.
 
 ******************************************
 Gaussian 09:  EM64L-G09RevB.01 12-Aug-2010
                20-Nov-2016 
 ******************************************
 %mem=500MW
 %nproc=7
 Will use up to    7 processors via shared memory.
 ----------------------------------------------------------------------
 #p scrf=(cpcm,solvent=water) opt=(cartesian,verytight,maxcycles=2000) 
 scf=(qc,tight,maxcycles=700) NoSymm Temperature=348.15 int=(grid=fine)
  freq rb3lyp/aug-cc-pvdz
 ----------------------------------------------------------------------
 1/6=2000,7=1,10=7,14=-1,18=10,26=3,38=1,112=348150/1,3;
 2/12=2,15=1,17=6,18=5,29=2,40=1/2;
 3/5=16,7=10,11=2,16=1,25=1,30=1,70=2101,71=1,72=1,74=-5,75=-4,116=1/1,2,3;
 4//1;
 5/5=2,7=700,8=3,32=2,38=5,53=1/8;
 6/7=2,8=2,9=2,10=2,28=1/1;
 7/7=1,29=1,30=1/1,2,3,16;
 1/6=2000,7=1,10=7,14=-1,18=10/3(2);
 2/15=1,29=1/2;
 99/12=1/99;
 2/15=1,29=1/2;
 3/5=16,7=10,11=2,16=1,25=1,30=1,70=2105,71=1,72=1,74=-5,75=-4,116=1/1,2,3;
 4/5=5,16=3/1;
 5/5=2,7=700,8=3,32=2,38=5,53=1/8;
 7/7=1,30=1/1,2,3,16;
 1/6=2000,7=1,14=-1,18=10/3(-5);
 2/15=1,29=1/2;
 6/7=2,8=2,9=2,10=2,19=2,28=1/1;
 99/9=1,12=1/99;
 Leave Link    1 at Sun Nov 20 09:14:48 2016, MaxMem=  524288000 cpu:       0.5
 (Enter /home/ubuntu/g09/l101.exe)
 -------------------------------------
 p-CH3O-Ph-N2-OTf-RB3LYP-aug-cc-pVDZ--
 -------------------------------------
 Symbolic Z-matrix:
 Charge =  0 Multiplicity = 1
 C                     2.19443  -0.65035  -0.57549 
 C                     1.19451   0.3008   -0.69183 
 C                     1.4315    1.57528  -0.14603 
 C                     2.63114   1.92465   0.51596 
 C                     3.6112    0.96297   0.62173 
 C                     3.40138  -0.33193   0.08261 
 H                     2.01709  -1.64227  -0.98071 
 H                     0.22783   0.10487  -1.16261 
 H                     2.76721   2.92029   0.93387 
 H                     4.55229   1.17347   1.12573 
 N                     0.44704   2.52646  -0.24245 
 N                    -0.31945   3.32949  -0.32669 
 S                    -2.29933   0.47076   0.03427 
 C                    -2.43031  -1.42114   0.13234 
 O                    -1.30064   0.79573   1.11875 
 O                    -3.68978   0.94884   0.24349 
 O                    -1.72002   0.69016  -1.34971 
 F                    -1.21217  -1.99072  -0.08445 
 F                    -2.85685  -1.81728   1.34292 
 F                    -3.27499  -1.89939  -0.79635 
 O                     4.41598  -1.18883   0.25383 
 C                     4.29003  -2.53737  -0.23037 
 H                     5.22906  -3.02695   0.03848 
 H                     4.16269  -2.54591  -1.32114 
 H                     3.44847  -3.04556   0.25865 
 
 NAtoms=     25 NQM=     25 NQMF=      0 NMic=      0 NMicF=      0 NTot=     25.
                    Isotopes and Nuclear Properties:
 (Nuclear quadrupole moments (NQMom) in fm**2, nuclear magnetic moments (NMagM)
  in nuclear magnetons)

  Atom         1           2           3           4           5           6           7           8           9          10
 IAtWgt=          12          12          12          12          12          12           1           1           1           1
 AtmWgt=  12.0000000  12.0000000  12.0000000  12.0000000  12.0000000  12.0000000   1.0078250   1.0078250   1.0078250   1.0078250
 NucSpn=           0           0           0           0           0           0           1           1           1           1
 AtZEff=   0.0000000   0.0000000   0.0000000   0.0000000   0.0000000   0.0000000   0.0000000   0.0000000   0.0000000   0.0000000
 NQMom=    0.0000000   0.0000000   0.0000000   0.0000000   0.0000000   0.0000000   0.0000000   0.0000000   0.0000000   0.0000000
 NMagM=    0.0000000   0.0000000   0.0000000   0.0000000   0.0000000   0.0000000   2.7928460   2.7928460   2.7928460   2.7928460

  Atom        11          12          13          14          15          16          17          18          19          20
 IAtWgt=          14          14          32          12          16          16          16          19          19          19
 AtmWgt=  14.0030740  14.0030740  31.9720718  12.0000000  15.9949146  15.9949146  15.9949146  18.9984033  18.9984033  18.9984033
 NucSpn=           2           2           0           0           0           0           0           1           1           1
 AtZEff=   0.0000000   0.0000000   0.0000000   0.0000000   0.0000000   0.0000000   0.0000000   0.0000000   0.0000000   0.0000000
 NQMom=    2.0440000   2.0440000   0.0000000   0.0000000   0.0000000   0.0000000   0.0000000   0.0000000   0.0000000   0.0000000
 NMagM=    0.4037610   0.4037610   0.0000000   0.0000000   0.0000000   0.0000000   0.0000000   2.6288670   2.6288670   2.6288670

  Atom        21          22          23          24          25
 IAtWgt=          16          12           1           1           1
 AtmWgt=  15.9949146  12.0000000   1.0078250   1.0078250   1.0078250
 NucSpn=           0           0           1           1           1
 AtZEff=   0.0000000   0.0000000   0.0000000   0.0000000   0.0000000
 NQMom=    0.0000000   0.0000000   0.0000000   0.0000000   0.0000000
 NMagM=    0.0000000   0.0000000   2.7928460   2.7928460   2.7928460
 Leave Link  101 at Sun Nov 20 09:14:48 2016, MaxMem=  524288000 cpu:       0.5
 (Enter /home/ubuntu/g09/l103.exe)

 GradGradGradGradGradGradGradGradGradGradGradGradGradGradGradGradGradGrad
 Berny optimization.
 Initialization pass.
 No Z-matrix variables, so optimization will use Cartesian coordinates.
 Trust Radius=3.00D-01 FncErr=1.00D-07 GrdErr=1.00D-06
 Number of steps in this run=    150 maximum allowed number of steps=    150.
 GradGradGradGradGradGradGradGradGradGradGradGradGradGradGradGradGradGrad

 Leave Link  103 at Sun Nov 20 09:14:48 2016, MaxMem=  524288000 cpu:       0.0
 (Enter /home/ubuntu/g09/l202.exe)
 ---------------------------------------------------------------------------------------------------
                            Z-MATRIX (ANGSTROMS AND DEGREES)
   CD    Cent   Atom    N1       Length/X        N2       Alpha/Y        N3        Beta/Z          J
 ---------------------------------------------------------------------------------------------------
      1      1  C        0   2.194430         -0.650350         -0.575490
      2      2  C        0   1.194510          0.300800         -0.691830
      3      3  C        0   1.431500          1.575280         -0.146030
      4      4  C        0   2.631140          1.924650          0.515960
      5      5  C        0   3.611200          0.962970          0.621730
      6      6  C        0   3.401380         -0.331930          0.082610
      7      7  H        0   2.017090         -1.642270         -0.980710
      8      8  H        0   0.227830          0.104870         -1.162610
      9      9  H        0   2.767210          2.920290          0.933870
     10     10  H        0   4.552290          1.173470          1.125730
     11     11  N        0   0.447040          2.526460         -0.242450
     12     12  N        0  -0.319450          3.329490         -0.326690
     13     13  S        0  -2.299330          0.470760          0.034270
     14     14  C        0  -2.430310         -1.421140          0.132340
     15     15  O        0  -1.300640          0.795730          1.118750
     16     16  O        0  -3.689780          0.948840          0.243490
     17     17  O        0  -1.720020          0.690160         -1.349710
     18     18  F        0  -1.212170         -1.990720         -0.084450
     19     19  F        0  -2.856850         -1.817280          1.342920
     20     20  F        0  -3.274990         -1.899390         -0.796350
     21     21  O        0   4.415980         -1.188830          0.253830
     22     22  C        0   4.290030         -2.537370         -0.230370
     23     23  H        0   5.229060         -3.026950          0.038480
     24     24  H        0   4.162690         -2.545910         -1.321140
     25     25  H        0   3.448470         -3.045560          0.258650
 ---------------------------------------------------------------------------------------------------
                         Z-Matrix orientation:                         
 ---------------------------------------------------------------------
 Center     Atomic      Atomic             Coordinates (Angstroms)
 Number     Number       Type             X           Y           Z
 ---------------------------------------------------------------------
      1          6           0        2.194430   -0.650350   -0.575490
      2          6           0        1.194510    0.300800   -0.691830
      3          6           0        1.431500    1.575280   -0.146030
      4          6           0        2.631140    1.924650    0.515960
      5          6           0        3.611200    0.962970    0.621730
      6          6           0        3.401380   -0.331930    0.082610
      7          1           0        2.017090   -1.642270   -0.980710
      8          1           0        0.227830    0.104870   -1.162610
      9          1           0        2.767210    2.920290    0.933870
     10          1           0        4.552290    1.173470    1.125730
     11          7           0        0.447040    2.526460   -0.242450
     12          7           0       -0.319450    3.329490   -0.326690
     13         16           0       -2.299330    0.470760    0.034270
     14          6           0       -2.430310   -1.421140    0.132340
     15          8           0       -1.300640    0.795730    1.118750
     16          8           0       -3.689780    0.948840    0.243490
     17          8           0       -1.720020    0.690160   -1.349710
     18          9           0       -1.212170   -1.990720   -0.084450
     19          9           0       -2.856850   -1.817280    1.342920
     20          9           0       -3.274990   -1.899390   -0.796350
     21          8           0        4.415980   -1.188830    0.253830
     22          6           0        4.290030   -2.537370   -0.230370
     23          1           0        5.229060   -3.026950    0.038480
     24          1           0        4.162690   -2.545910   -1.321140
     25          1           0        3.448470   -3.045560    0.258650
 ---------------------------------------------------------------------
                    Distance matrix (angstroms):
                    1          2          3          4          5
     1  C    0.000000
     2  C    1.384941   0.000000
     3  C    2.391637   1.406542   0.000000
     4  C    2.830654   2.481844   1.414011   0.000000
     5  C    2.458328   2.829187   2.390705   1.377147   0.000000
     6  C    1.411104   2.422887   2.751391   2.423472   1.418253
     7  H    1.086075   2.129697   3.375238   3.916631   3.449098
     8  H    2.186912   1.092928   2.155078   3.450376   3.920127
     9  H    3.918637   3.460927   2.181595   1.088330   2.154264
    10  H    3.432196   3.916601   3.393841   2.151025   1.088107
    11  N    3.640935   2.390443   1.372298   2.389070   3.633623
    12  N    4.713875   3.405637   2.485099   3.374850   4.685075
    13  S    4.671464   3.572538   3.895069   5.162883   5.960012
    14  C    4.741662   4.096786   4.895876   6.079453   6.513319
    15  O    4.144528   3.122328   3.109977   4.134817   4.939754
    16  O    6.152403   5.015084   5.174134   6.401599   7.310785
    17  O    4.209430   3.013120   3.487744   4.892574   5.690598
    18  F    3.693594   3.378177   4.439498   5.519207   5.699813
    19  F    5.527880   5.003997   5.667132   6.693574   7.077116
    20  F    5.614573   4.982789   5.886195   7.157361   7.591026
    21  O    2.431670   3.673029   4.087458   3.598350   2.326642
    22  C    2.841037   4.224973   5.009211   4.818563   3.665960
    23  H    3.903097   5.280612   5.969592   5.612087   4.344780
    24  H    2.832523   4.160515   5.081780   5.070157   4.048595
    25  H    2.829388   4.145102   5.058072   5.043533   4.028228
                    6          7          8          9         10
     6  C    0.000000
     7  H    2.182636   0.000000
     8  H    3.436973   2.507396   0.000000
     9  H    3.421074   5.004523   4.332467   0.000000
    10  H    2.163082   4.335057   5.007930   2.504935   0.000000
    11  N    4.123613   4.515351   2.599778   2.630973   4.533826
    12  N    5.236229   5.532229   3.375863   3.359156   5.521938
    13  S    5.757147   4.911880   2.820095   5.699062   6.973506
    14  C    5.932745   4.589896   3.327358   6.819434   7.515020
    15  O    4.945118   4.621570   2.831627   4.592966   5.865111
    16  O    7.207691   6.385991   4.247007   6.786454   8.292197
    17  O    5.415251   4.420677   2.042472   5.506673   6.760419
    18  F    4.905541   3.369395   2.761798   6.402379   6.686227
    19  F    6.554395   5.402331   4.414475   7.364913   7.992941
    20  F    6.914002   5.301529   4.052277   7.920300   8.625727
    21  O    1.339032   2.735758   4.606578   4.479483   2.521756
    22  C    2.398254   2.555479   4.934772   5.784504   3.959561
    23  H    3.256608   3.643191   6.021895   6.498622   4.391316
    24  H    2.729801   2.352883   4.747093   6.075506   4.469088
    25  H    2.719742   2.356711   4.724162   6.042467   4.446399
                   11         12         13         14         15
    11  N    0.000000
    12  N    1.113311   0.000000
    13  S    3.441660   3.496077   0.000000
    14  C    4.899302   5.218709   1.898963   0.000000
    15  O    2.811170   3.077657   1.509664   2.676504   0.000000
    16  O    4.454021   4.165540   1.485155   2.686154   2.549022
    17  O    3.048634   3.158200   1.516291   2.675551   2.506057
    18  F    4.814858   5.400024   2.693491   1.362088   3.036416
    19  F    5.683059   5.976223   2.694164   1.343267   3.049568
    20  F    5.809343   6.024698   2.694337   1.343381   3.850888
    21  O    5.459135   6.570884   6.920826   6.851308   6.112799
    22  C    6.356972   7.461677   7.248348   6.822060   6.647200
    23  H    7.333962   8.445333   8.301244   7.826454   7.643092
    24  H    6.379543   7.456463   7.259142   6.844367   6.853291
    25  H    6.348787   7.428399   6.741814   6.100389   6.168414
                   16         17         18         19         20
    16  O    0.000000
    17  O    2.546597   0.000000
    18  F    3.858382   3.007642   0.000000
    19  F    3.090945   3.850960   2.184591   0.000000
    20  F    3.060348   3.070816   2.184117   2.181298   0.000000
    21  O    8.382904   6.614563   5.695045   7.380726   7.794793
    22  C    8.720985   6.913073   5.531214   7.353344   7.612942
    23  H    9.767018   8.002105   6.525207   8.279300   8.619002
    24  H    8.736282   6.714108   5.543172   7.543345   7.484148
    25  H    8.179858   6.576908   4.790821   6.514704   6.901568
                   21         22         23         24         25
    21  O    0.000000
    22  C    1.438358   0.000000
    23  H    2.021425   1.092587   0.000000
    24  H    2.094362   1.098211   1.793631   0.000000
    25  H    2.093692   1.098008   1.794247   1.804300   0.000000
 Symmetry turned off by external request.
 Stoichiometry    C8H7F3N2O4S
 Framework group  C1[X(C8H7F3N2O4S)]
 Deg. of freedom    69
 Full point group                 C1      NOp   1
 Rotational constants (GHZ):      0.5816463      0.2354402      0.1827316
 Leave Link  202 at Sun Nov 20 09:14:48 2016, MaxMem=  524288000 cpu:       0.3
 (Enter /home/ubuntu/g09/l301.exe)
 Standard basis: Aug-CC-pVDZ (5D, 7F)
 Ernie: Thresh=  0.10000D-02 Tol=  0.10000D-05 Strict=F.
 Ernie:  44 primitive shells out of 527 were deleted.
 Integral buffers will be    131072 words long.
 Raffenetti 2 integral format.
 Two-electron integral symmetry is turned off.
   481 basis functions,   889 primitive gaussians,   517 cartesian basis functions
    72 alpha electrons       72 beta electrons
       nuclear repulsion energy      1555.7847548365 Hartrees.
 IExCor=  402 DFT=T Ex+Corr=B3LYP ExCW=0 ScaHFX=  0.200000
 ScaDFX=  0.800000  0.720000  1.000000  0.810000 ScalE2=  1.000000  1.000000
 IRadAn=      4 IRanWt=     -1 IRanGd=            0 ICorTp=0
 NAtoms=   25 NActive=   25 NUniq=   25 SFac= 1.00D+00 NAtFMM=   50 NAOKFM=F Big=F
 ------------------------------------------------------------------------------
 Polarizable Continuum Model (PCM)
 =================================
 Model                : C-PCM.
 Atomic radii         : UFF (Universal Force Field).
 Polarization charges : Total charges.
 Charge compensation  : None.
 Solution method      : Matrix inversion.
 Cavity type          : Scaled VdW (van der Waals Surface) (Alpha=1.100).
 Cavity algorithm     : GePol (No added spheres)
                        Default sphere list used, NSphG=   25.
                        Lebedev-Laikov grids with approx.  5.0 points / Ang**2.
                        Smoothing algorithm: Karplus/York (Gamma=1.0000).
                        Polarization charges: spherical gaussians, with
                                              point-specific exponents (IZeta= 3).
                        Self-potential: point-specific (ISelfS= 7).
                        Self-field    : sphere-specific E.n sum rule (ISelfD= 2).
 1st derivatives      : Analytical E(r).r(x)/FMM algorithm (CHGder, D1EAlg=3).
                        Cavity 1st derivative terms included.
 Solvent              : Water, Eps=  78.355300 Eps(inf)=   1.777849
 ------------------------------------------------------------------------------
 GePol: Number of generator spheres                  =      25
 GePol: Total number of spheres                      =      25
 GePol: Number of exposed spheres                    =      25 (100.00%)
 GePol: Number of points                             =    2354
 GePol: Average weight of points                     =       0.13
 GePol: Minimum weight of points                     =   0.13D-10
 GePol: Maximum weight of points                     =    0.20577
 GePol: Number of points with low weight             =     121
 GePol: Fraction of low-weight points (<1% of avg)   =       5.14%
 GePol: Cavity surface area                          =    304.412 Ang**2
 GePol: Cavity volume                                =    319.403 Ang**3
 Leave Link  301 at Sun Nov 20 09:14:48 2016, MaxMem=  524288000 cpu:       0.5
 (Enter /home/ubuntu/g09/l302.exe)
 NPDir=0 NMtPBC=     1 NCelOv=     1 NCel=       1 NClECP=     1 NCelD=      1
         NCelK=      1 NCelE2=     1 NClLst=     1 CellRange=     0.0.
 One-electron integrals computed using PRISM.
 NBasis=   481 RedAO= T  NBF=   481
 NBsUse=   481 1.00D-06 NBFU=   481
 Precomputing XC quadrature grid using
 IXCGrd= 2 IRadAn=           4 IRanWt=          -1 IRanGd=           0 AccXCQ= 0.00D+00.
 NRdTot=    1639 NPtTot=      208622 NUsed=      220433 NTot=      220465
 NSgBfM=   515   515   515   516   516 NAtAll=    25    25.
 Leave Link  302 at Sun Nov 20 09:14:51 2016, MaxMem=  524288000 cpu:      11.3
 (Enter /home/ubuntu/g09/l303.exe)
 DipDrv:  MaxL=1.
 Leave Link  303 at Sun Nov 20 09:14:52 2016, MaxMem=  524288000 cpu:       1.8
 (Enter /home/ubuntu/g09/l401.exe)
 Harris functional with IExCor=  402 diagonalized for initial guess.
 ExpMin= 2.97D-02 ExpMax= 1.11D+05 ExpMxC= 1.07D+03 IAcc=3 IRadAn=         4 AccDes= 0.00D+00
 HarFok:  IExCor=  402 AccDes= 0.00D+00 IRadAn=         4 IDoV= 1
 ScaDFX=  1.000000  1.000000  1.000000  1.000000
 FoFCou: FMM=F IPFlag=           0 FMFlag=      100000 FMFlg1=           0
         NFxFlg=           0 DoJE=T BraDBF=F KetDBF=T FulRan=T
         Omega=  0.000000  0.000000  1.000000  0.000000  0.000000 ICntrl=     500 IOpCl=  0
         NMat0=    1 NMatS0=    1 NMatT0=    0 NMatD0=    1 NMtDS0=    0 NMtDT0=    0
         I1Cent=           4 NGrid=           0.
 Symmetry not used in FoFCou.
 Harris En= -1417.17202254822    
 Leave Link  401 at Sun Nov 20 09:15:01 2016, MaxMem=  524288000 cpu:      37.2
 (Enter /home/ubuntu/g09/l508.exe)
 Direct SCF.
 Tight linear equation convergence will be used.
 RB3LYP wavefunction.
 Quadratic Convergence SCF Method.
 Line search only if initial step raises energy.
 Two-electron integral symmetry not used.
 ReadGW:  IGet=1 IStart=           2 Next=      220197 LGW=      220195.
 Pruned (  75, 302) grid will be used in CalDFT.
 Iteration   1 EE= -1416.67659921465                                    Grad=1.143D+00
 Gradient too large for Newton-Raphson -- use scaled steepest descent instead.
     ILin= 1 X=0.000D+00 Y=-1.416676599215D+03 DE= 0.00D+00
     ILin= 2 X=3.000D-01 Y=-1.417162297752D+03 DE=-4.86D-01
     ILin= 3 X=4.243D-01 Y=-1.417051107792D+03 DE=-3.75D-01
     An  expanding polynomial of degree  3 produced  0.2866
 Iteration   2 EE= -1417.16266628416     Delta-E=       -0.486067069512 Grad=2.920D-01
 Gradient too large for Newton-Raphson -- use scaled steepest descent instead.
     ILin= 1 X=0.000D+00 Y=-1.417162666284D+03 DE= 0.00D+00
     ILin= 2 X=3.000D-01 Y=-1.417194115340D+03 DE=-3.14D-02
     ILin= 3 X=4.243D-01 Y=-1.417200613226D+03 DE=-3.79D-02
     ILin= 4 X=6.000D-01 Y=-1.417203328986D+03 DE=-4.07D-02
     ILin= 5 X=8.485D-01 Y=-1.417194346836D+03 DE=-3.17D-02
     An  expanding polynomial of degree  5 produced  0.5753
 Iteration   3 EE= -1417.20340328346     Delta-E=       -0.040736999304 Grad=1.203D-01
 Gradient too large for Newton-Raphson -- use scaled steepest descent instead.
     ILin= 1 X=0.000D+00 Y=-1.417203403283D+03 DE= 0.00D+00
     ILin= 2 X=5.753D-01 Y=-1.417209334264D+03 DE=-5.93D-03
     ILin= 3 X=8.136D-01 Y=-1.417207887424D+03 DE=-4.48D-03
     An  expanding polynomial of degree  3 produced  0.5437
 Iteration   4 EE= -1417.20935515115     Delta-E=       -0.005951867682 Grad=4.969D-02
 Gradient too large for Newton-Raphson -- use scaled steepest descent instead.
     ILin= 1 X=0.000D+00 Y=-1.417209355151D+03 DE= 0.00D+00
     ILin= 2 X=5.437D-01 Y=-1.417210599710D+03 DE=-1.24D-03
     ILin= 3 X=7.689D-01 Y=-1.417210325563D+03 DE=-9.70D-04
     An  expanding polynomial of degree  3 produced  0.5228
 Iteration   5 EE= -1417.21060178767     Delta-E=       -0.001246636527 Grad=2.805D-02
 Gradient too large for Newton-Raphson -- use scaled steepest descent instead.
     ILin= 1 X=0.000D+00 Y=-1.417210601788D+03 DE= 0.00D+00
     ILin= 2 X=5.228D-01 Y=-1.417210919696D+03 DE=-3.18D-04
     ILin= 3 X=7.394D-01 Y=-1.417210814445D+03 DE=-2.13D-04
     An  expanding polynomial of degree  3 produced  0.4669
 Iteration   6 EE= -1417.21092432104     Delta-E=       -0.000322533362 Grad=1.396D-02
 Gradient too large for Newton-Raphson -- use scaled steepest descent instead.
     ILin= 1 X=0.000D+00 Y=-1.417210924321D+03 DE= 0.00D+00
     ILin= 2 X=4.669D-01 Y=-1.417211021575D+03 DE=-9.73D-05
     ILin= 3 X=6.603D-01 Y=-1.417211001176D+03 DE=-7.69D-05
     An  expanding polynomial of degree  3 produced  0.4526
 Iteration   7 EE= -1417.21102167213     Delta-E=       -0.000097351091 Grad=8.685D-03
 QCNR:  CnvC1=2.43D-08 CnvC2=2.43D-07
 LinEq1:  Iter=  0 NonCon=     1 RMS=4.85D-05 Max=3.09D-03
 AX will form     1 AO Fock derivatives at one time.
 LinEq1:  Iter=  1 NonCon=     1 RMS=7.10D-05 Max=4.08D-03
 LinEq1:  Iter=  2 NonCon=     1 RMS=1.29D-05 Max=1.13D-03
 LinEq1:  Iter=  3 NonCon=     1 RMS=8.05D-06 Max=3.78D-04
 LinEq1:  Iter=  4 NonCon=     1 RMS=2.95D-06 Max=1.02D-04
 LinEq1:  Iter=  5 NonCon=     1 RMS=2.19D-06 Max=1.06D-04
 LinEq1:  Iter=  6 NonCon=     1 RMS=1.19D-06 Max=6.62D-05
 LinEq1:  Iter=  7 NonCon=     1 RMS=6.66D-07 Max=2.97D-05
 LinEq1:  Iter=  8 NonCon=     1 RMS=3.09D-07 Max=1.30D-05
 LinEq1:  Iter=  9 NonCon=     1 RMS=2.07D-07 Max=9.54D-06
 LinEq1:  Iter= 10 NonCon=     1 RMS=6.27D-08 Max=2.21D-06
 LinEq1:  Iter= 11 NonCon=     1 RMS=4.62D-08 Max=2.00D-06
 LinEq1:  Iter= 12 NonCon=     1 RMS=2.68D-08 Max=7.06D-07
 LinEq1:  Iter= 13 NonCon=     1 RMS=2.01D-08 Max=8.04D-07
 LinEq1:  Iter= 14 NonCon=     1 RMS=1.12D-08 Max=8.89D-07
 LinEq1:  Iter= 15 NonCon=     1 RMS=6.85D-09 Max=3.54D-07
 LinEq1:  Iter= 16 NonCon=     0 RMS=3.20D-09 Max=1.56D-07
 Linear equations converged to 2.427D-08 2.427D-07 after    16 iterations.
 Angle between quadratic step and gradient=  49.82 degrees.
     ILin= 1 X=0.000D+00 Y=-1.417211021672D+03 DE= 0.00D+00
     ILin= 2 X=1.000D+00 Y=-1.417211075416D+03 DE=-5.37D-05
     ILin= 3 X=1.414D+00 Y=-1.417211066164D+03 DE=-4.45D-05
     An  expanding polynomial of degree  3 produced  0.9995
 Iteration   8 EE= -1417.21107541597     Delta-E=       -0.000053743841 Grad=1.493D-05
 QCNR:  CnvC1=1.49D-10 CnvC2=1.49D-09
 LinEq1:  Iter=  0 NonCon=     1 RMS=8.23D-08 Max=4.43D-06
 LinEq1:  Iter=  1 NonCon=     1 RMS=6.20D-08 Max=2.98D-06
 LinEq1:  Iter=  2 NonCon=     1 RMS=3.18D-08 Max=1.76D-06
 LinEq1:  Iter=  3 NonCon=     1 RMS=2.87D-08 Max=1.26D-06
 LinEq1:  Iter=  4 NonCon=     1 RMS=1.42D-08 Max=7.28D-07
 LinEq1:  Iter=  5 NonCon=     1 RMS=6.66D-09 Max=1.93D-07
 LinEq1:  Iter=  6 NonCon=     1 RMS=3.53D-09 Max=2.30D-07
 LinEq1:  Iter=  7 NonCon=     1 RMS=2.28D-09 Max=9.19D-08
 LinEq1:  Iter=  8 NonCon=     1 RMS=1.52D-09 Max=1.05D-07
 LinEq1:  Iter=  9 NonCon=     1 RMS=9.72D-10 Max=4.07D-08
 LinEq1:  Iter= 10 NonCon=     1 RMS=5.89D-10 Max=2.66D-08
 LinEq1:  Iter= 11 NonCon=     1 RMS=3.42D-10 Max=1.59D-08
 LinEq1:  Iter= 12 NonCon=     1 RMS=2.07D-10 Max=6.55D-09
 LinEq1:  Iter= 13 NonCon=     1 RMS=1.12D-10 Max=4.52D-09
 LinEq1:  Iter= 14 NonCon=     1 RMS=5.57D-11 Max=2.24D-09
 LinEq1:  Iter= 15 NonCon=     1 RMS=3.51D-11 Max=2.24D-09
 LinEq1:  Iter= 16 NonCon=     0 RMS=2.92D-11 Max=8.02D-10
 Linear equations converged to 1.493D-10 1.493D-09 after    16 iterations.
 Angle between quadratic step and gradient=  46.14 degrees.
     ILin= 1 X=0.000D+00 Y=-1.417211075416D+03 DE= 0.00D+00
     ILin= 2 X=1.000D+00 Y=-1.417211075416D+03 DE=-1.32D-10
 Iteration   9 EE= -1417.21107541610     Delta-E=       -0.000000000132 Grad=8.465D-09
 Error on total polarization charges =  0.01503
 Rotation gradient small -- convergence achieved.
 Density matrix is not symmetric, so final MOs not symmetrized.
 SCF Done:  E(RB3LYP) =  -1417.21107542     a.u. after    9 cycles
            Convg  =    0.8465D-08                    57 Fock formations.
              S**2 =  0.0000                  -V/T =  2.0052
 Leave Link  508 at Sun Nov 20 09:54:51 2016, MaxMem=  524288000 cpu:   16213.3
 (Enter /home/ubuntu/g09/l601.exe)
 Copying SCF densities to generalized density rwf, IOpCl= 0 IROHF=0.

 **********************************************************************

            Population analysis using the SCF density.

 **********************************************************************

 Alpha  occ. eigenvalues --  -89.13241 -24.76733 -24.76721 -24.76238 -19.22133
 Alpha  occ. eigenvalues --  -19.15125 -19.14540 -19.14415 -14.55295 -14.51141
 Alpha  occ. eigenvalues --  -10.45965 -10.30438 -10.30201 -10.25399 -10.25270
 Alpha  occ. eigenvalues --  -10.24717 -10.22998 -10.22957  -8.15823  -6.12154
 Alpha  occ. eigenvalues --   -6.12145  -6.12137  -1.33942  -1.25746  -1.25061
 Alpha  occ. eigenvalues --   -1.20545  -1.12616  -1.11345  -1.00183  -0.98840
 Alpha  occ. eigenvalues --   -0.94360  -0.86321  -0.80594  -0.76455  -0.74890
 Alpha  occ. eigenvalues --   -0.69985  -0.66792  -0.65774  -0.61783  -0.61561
 Alpha  occ. eigenvalues --   -0.61033  -0.56860  -0.56477  -0.56333  -0.55780
 Alpha  occ. eigenvalues --   -0.53075  -0.50798  -0.49687  -0.49645  -0.49529
 Alpha  occ. eigenvalues --   -0.48877  -0.48046  -0.47571  -0.46893  -0.46644
 Alpha  occ. eigenvalues --   -0.45607  -0.45405  -0.44995  -0.44341  -0.43581
 Alpha  occ. eigenvalues --   -0.41959  -0.40399  -0.37085  -0.36667  -0.35242
 Alpha  occ. eigenvalues --   -0.34934  -0.32407  -0.31930  -0.31245  -0.30460
 Alpha  occ. eigenvalues --   -0.28391  -0.27517
 Alpha virt. eigenvalues --   -0.12366  -0.10901  -0.05389  -0.01375  -0.01040
 Alpha virt. eigenvalues --    0.00185   0.00468   0.01668   0.01771   0.02205
 Alpha virt. eigenvalues --    0.02557   0.03299   0.03615   0.04636   0.04933
 Alpha virt. eigenvalues --    0.05264   0.05605   0.06317   0.06579   0.06732
 Alpha virt. eigenvalues --    0.07327   0.07788   0.08165   0.08482   0.08573
 Alpha virt. eigenvalues --    0.08989   0.09124   0.09458   0.09891   0.10028
 Alpha virt. eigenvalues --    0.10407   0.10558   0.11023   0.11299   0.11742
 Alpha virt. eigenvalues --    0.12090   0.12413   0.12692   0.12728   0.13075
 Alpha virt. eigenvalues --    0.13284   0.13886   0.14648   0.15195   0.15620
 Alpha virt. eigenvalues --    0.15884   0.16577   0.17338   0.17766   0.18080
 Alpha virt. eigenvalues --    0.18251   0.18884   0.19011   0.19250   0.19588
 Alpha virt. eigenvalues --    0.19995   0.20377   0.20893   0.21257   0.21340
 Alpha virt. eigenvalues --    0.21736   0.21971   0.22255   0.22736   0.22814
 Alpha virt. eigenvalues --    0.22927   0.23699   0.24395   0.24638   0.25200
 Alpha virt. eigenvalues --    0.25656   0.25890   0.26348   0.26536   0.26631
 Alpha virt. eigenvalues --    0.26879   0.27436   0.27541   0.27871   0.28260
 Alpha virt. eigenvalues --    0.28572   0.28984   0.29226   0.29529   0.29970
 Alpha virt. eigenvalues --    0.30394   0.30578   0.30991   0.31166   0.31690
 Alpha virt. eigenvalues --    0.31915   0.32572   0.32733   0.33090   0.33652
 Alpha virt. eigenvalues --    0.33962   0.34815   0.35287   0.35574   0.35885
 Alpha virt. eigenvalues --    0.36780   0.37266   0.38150   0.38281   0.38517
 Alpha virt. eigenvalues --    0.39072   0.40025   0.40960   0.41192   0.41675
 Alpha virt. eigenvalues --    0.41878   0.42814   0.43049   0.44534   0.45301
 Alpha virt. eigenvalues --    0.45600   0.46365   0.46547   0.47588   0.48089
 Alpha virt. eigenvalues --    0.48718   0.48857   0.49562   0.50101   0.50895
 Alpha virt. eigenvalues --    0.51643   0.52258   0.52515   0.53136   0.54063
 Alpha virt. eigenvalues --    0.54973   0.55646   0.56009   0.56251   0.56943
 Alpha virt. eigenvalues --    0.57290   0.58148   0.58872   0.58995   0.59863
 Alpha virt. eigenvalues --    0.59878   0.60441   0.61604   0.61809   0.62382
 Alpha virt. eigenvalues --    0.62972   0.63292   0.63650   0.64258   0.65191
 Alpha virt. eigenvalues --    0.65276   0.66692   0.67007   0.67345   0.67947
 Alpha virt. eigenvalues --    0.68952   0.69352   0.69577   0.70288   0.71296
 Alpha virt. eigenvalues --    0.71536   0.72001   0.72192   0.72996   0.73572
 Alpha virt. eigenvalues --    0.74361   0.74657   0.75474   0.76005   0.76734
 Alpha virt. eigenvalues --    0.77083   0.77900   0.78085   0.78686   0.79903
 Alpha virt. eigenvalues --    0.80848   0.81756   0.82598   0.82970   0.84050
 Alpha virt. eigenvalues --    0.85346   0.86350   0.86642   0.86771   0.87434
 Alpha virt. eigenvalues --    0.87479   0.89401   0.89648   0.90538   0.91297
 Alpha virt. eigenvalues --    0.92202   0.92633   0.94192   0.94522   0.95357
 Alpha virt. eigenvalues --    0.96104   0.97214   0.98910   0.99009   1.00263
 Alpha virt. eigenvalues --    1.00958   1.01722   1.02447   1.03476   1.04187
 Alpha virt. eigenvalues --    1.05080   1.06565   1.07449   1.07917   1.08957
 Alpha virt. eigenvalues --    1.11314   1.12052   1.12548   1.12750   1.13918
 Alpha virt. eigenvalues --    1.15078   1.15467   1.16341   1.17095   1.18736
 Alpha virt. eigenvalues --    1.19454   1.20255   1.21017   1.22242   1.23256
 Alpha virt. eigenvalues --    1.23650   1.24612   1.26060   1.27514   1.27820
 Alpha virt. eigenvalues --    1.27921   1.29226   1.29445   1.30330   1.30987
 Alpha virt. eigenvalues --    1.31538   1.31757   1.32626   1.33880   1.34493
 Alpha virt. eigenvalues --    1.34776   1.36134   1.36649   1.37695   1.38160
 Alpha virt. eigenvalues --    1.38892   1.39942   1.40566   1.41830   1.42834
 Alpha virt. eigenvalues --    1.43024   1.43500   1.44615   1.45264   1.45998
 Alpha virt. eigenvalues --    1.47386   1.47834   1.48433   1.48799   1.49299
 Alpha virt. eigenvalues --    1.49975   1.50352   1.51741   1.52646   1.53726
 Alpha virt. eigenvalues --    1.54458   1.55213   1.56807   1.58150   1.59106
 Alpha virt. eigenvalues --    1.60808   1.61226   1.61778   1.63076   1.63504
 Alpha virt. eigenvalues --    1.64289   1.64645   1.65766   1.66639   1.67195
 Alpha virt. eigenvalues --    1.67689   1.69057   1.69638   1.70444   1.71521
 Alpha virt. eigenvalues --    1.72480   1.74290   1.74367   1.75099   1.75661
 Alpha virt. eigenvalues --    1.76367   1.78468   1.80270   1.81320   1.81413
 Alpha virt. eigenvalues --    1.82316   1.83867   1.85213   1.86246   1.88671
 Alpha virt. eigenvalues --    1.89469   1.90632   1.91177   1.92529   1.92957
 Alpha virt. eigenvalues --    1.94660   1.96209   1.97812   1.98591   1.99258
 Alpha virt. eigenvalues --    2.00595   2.01278   2.03115   2.04476   2.05079
 Alpha virt. eigenvalues --    2.05378   2.06530   2.07402   2.08992   2.09160
 Alpha virt. eigenvalues --    2.10939   2.11629   2.13128   2.14573   2.16063
 Alpha virt. eigenvalues --    2.17256   2.17713   2.18099   2.19941   2.23093
 Alpha virt. eigenvalues --    2.27135   2.28213   2.30045   2.31460   2.34209
 Alpha virt. eigenvalues --    2.35685   2.36817   2.37668   2.38628   2.39108
 Alpha virt. eigenvalues --    2.40233   2.40973   2.42802   2.44682   2.47019
 Alpha virt. eigenvalues --    2.50846   2.53471   2.55081   2.58973   2.60272
 Alpha virt. eigenvalues --    2.64050   2.69716   2.72631   2.75401   2.77541
 Alpha virt. eigenvalues --    2.84507   2.84658   2.89002   2.90956   2.92386
 Alpha virt. eigenvalues --    2.95209   3.02468   3.04409   3.11997   3.18414
 Alpha virt. eigenvalues --    3.19165   3.23980   3.29539   3.30922   3.32522
 Alpha virt. eigenvalues --    3.33508   3.33956   3.34832   3.36624   3.37138
 Alpha virt. eigenvalues --    3.37954   3.38878   3.39236   3.40667   3.41720
 Alpha virt. eigenvalues --    3.46866   3.47939   3.48422   3.49358   3.49693
 Alpha virt. eigenvalues --    3.51275   3.54243   3.55232   3.57287   3.62073
 Alpha virt. eigenvalues --    3.68799   3.74063   3.78727   4.47293   4.47771
 Alpha virt. eigenvalues --    4.49531   4.49975   4.52311   4.53946   4.57872
 Alpha virt. eigenvalues --    4.58133   4.59226   4.62986   4.63620   4.64654
 Alpha virt. eigenvalues --    4.68531   4.72929   4.80530   4.82018
          Condensed to atoms (all electrons):
              1          2          3          4          5          6
     1  C   23.672759 -10.079530   6.273107  -9.104128   5.955029  -8.435700
     2  C  -10.079530  23.739832 -10.485653   6.191217  -9.031409   5.433868
     3  C    6.273107 -10.485653  26.140657 -15.380855   8.515384  -8.554290
     4  C   -9.104128   6.191217 -15.380855  26.052578 -11.594571   8.357691
     5  C    5.955029  -9.031409   8.515384 -11.594571  26.250668 -11.652567
     6  C   -8.435700   5.433868  -8.554290   8.357691 -11.652567  18.897406
     7  H   -3.240967   0.997149  -0.670754   0.133858   0.077355   1.171296
     8  H    0.715388  -3.148917   1.794236  -0.086287   0.096984  -0.620255
     9  H    0.345903  -0.016493   2.476846  -3.292963   1.124994  -1.192360
    10  H   -0.173489   0.417243  -1.002953   1.261101  -3.572196   2.202901
    11  N   -1.371869   0.841891  -1.628646   1.989588  -1.034560   0.871030
    12  N   -0.256200   0.056583  -2.262324   0.633779  -0.287231   0.266227
    13  S   -0.119931  -0.127926   0.050070   0.116324  -0.017703  -0.008063
    14  C   -0.033583  -0.003581   0.027137  -0.002208   0.003813  -0.006990
    15  O    0.002041   0.012470  -0.065837   0.028963  -0.000620   0.017165
    16  O   -0.000041   0.033032  -0.011130  -0.006500  -0.000789   0.001445
    17  O   -0.029012   0.072939  -0.102685   0.009552  -0.016963   0.024632
    18  F    0.031035  -0.012237  -0.016428  -0.011611   0.001886   0.015689
    19  F   -0.000345   0.008330  -0.001327  -0.000590   0.000161  -0.000043
    20  F    0.006098   0.002152  -0.006235  -0.000575  -0.000146   0.001713
    21  O    0.999514  -0.339993   0.331028  -0.365682   0.423436  -1.310001
    22  C   -0.102003   0.229862  -0.177382   0.203173  -0.416663   0.097656
    23  H   -0.216000  -0.037605   0.010124   0.003089  -0.005327   0.397047
    24  H    0.032992   0.082064  -0.021197   0.014609  -0.032666  -0.093183
    25  H    0.090770   0.012992  -0.012027   0.015200  -0.015113  -0.099808
              7          8          9         10         11         12
     1  C   -3.240967   0.715388   0.345903  -0.173489  -1.371869  -0.256200
     2  C    0.997149  -3.148917  -0.016493   0.417243   0.841891   0.056583
     3  C   -0.670754   1.794236   2.476846  -1.002953  -1.628646  -2.262324
     4  C    0.133858  -0.086287  -3.292963   1.261101   1.989588   0.633779
     5  C    0.077355   0.096984   1.124994  -3.572196  -1.034560  -0.287231
     6  C    1.171296  -0.620255  -1.192360   2.202901   0.871030   0.266227
     7  H    4.481475  -0.399037   0.023208  -0.058070   0.014370  -0.004971
     8  H   -0.399037   3.806921  -0.036081   0.023269  -0.290154  -0.050701
     9  H    0.023208  -0.036081   2.936288  -0.225282  -0.327157   0.001018
    10  H   -0.058070   0.023269  -0.225282   3.109016   0.029925   0.004906
    11  N    0.014370  -0.290154  -0.327157   0.029925   8.386068  -1.040869
    12  N   -0.004971  -0.050701   0.001018   0.004906  -1.040869  10.720446
    13  S    0.015970   0.001063  -0.003011  -0.000731  -0.038127   0.031182
    14  C   -0.004077   0.012746   0.000098   0.000033   0.001827  -0.003455
    15  O    0.001251   0.018184   0.002041   0.000281   0.036510  -0.028503
    16  O   -0.000840   0.005103   0.000323   0.000010   0.001635   0.002796
    17  O   -0.005577   0.005537  -0.000597  -0.000368   0.015488   0.009732
    18  F   -0.005126  -0.000078  -0.000075   0.000057   0.001246   0.000621
    19  F    0.000480  -0.000434   0.000032   0.000009   0.000422   0.000603
    20  F    0.000313  -0.002066   0.000020   0.000001   0.000462   0.000419
    21  O   -0.214303   0.004914  -0.003799  -0.170324  -0.027402  -0.003903
    22  C    0.020625   0.008146  -0.003536   0.044882   0.019438   0.003487
    23  H    0.048150  -0.002203   0.001329  -0.014824   0.000191   0.000074
    24  H   -0.092595   0.006915  -0.001839   0.012596   0.001948   0.000424
    25  H   -0.079688   0.001645  -0.001840   0.010626   0.001586   0.000252
             13         14         15         16         17         18
     1  C   -0.119931  -0.033583   0.002041  -0.000041  -0.029012   0.031035
     2  C   -0.127926  -0.003581   0.012470   0.033032   0.072939  -0.012237
     3  C    0.050070   0.027137  -0.065837  -0.011130  -0.102685  -0.016428
     4  C    0.116324  -0.002208   0.028963  -0.006500   0.009552  -0.011611
     5  C   -0.017703   0.003813  -0.000620  -0.000789  -0.016963   0.001886
     6  C   -0.008063  -0.006990   0.017165   0.001445   0.024632   0.015689
     7  H    0.015970  -0.004077   0.001251  -0.000840  -0.005577  -0.005126
     8  H    0.001063   0.012746   0.018184   0.005103   0.005537  -0.000078
     9  H   -0.003011   0.000098   0.002041   0.000323  -0.000597  -0.000075
    10  H   -0.000731   0.000033   0.000281   0.000010  -0.000368   0.000057
    11  N   -0.038127   0.001827   0.036510   0.001635   0.015488   0.001246
    12  N    0.031182  -0.003455  -0.028503   0.002796   0.009732   0.000621
    13  S   14.671640   0.275723  -0.298867  -0.301785  -0.316485  -0.092276
    14  C    0.275723   4.755142  -0.034171  -0.036566  -0.035567  -0.013054
    15  O   -0.298867  -0.034171   9.169354   0.064417   0.045303   0.016751
    16  O   -0.301785  -0.036566   0.064417   9.087647   0.068826   0.019322
    17  O   -0.316485  -0.035567   0.045303   0.068826   9.199733   0.012380
    18  F   -0.092276  -0.013054   0.016751   0.019322   0.012380   9.615311
    19  F   -0.082358   0.013824   0.014979   0.027256   0.019096  -0.034347
    20  F   -0.076508   0.002731   0.017577   0.027124   0.022797  -0.027167
    21  O    0.000220  -0.000426  -0.000570  -0.000004  -0.000079  -0.000012
    22  C   -0.000058   0.000036  -0.000219   0.000017   0.000095  -0.000693
    23  H   -0.000149   0.000062  -0.000008   0.000003  -0.000019  -0.000070
    24  H    0.000214  -0.000062   0.000072   0.000005   0.000200  -0.000267
    25  H   -0.000143   0.000136  -0.000306  -0.000005   0.000229   0.001030
             19         20         21         22         23         24
     1  C   -0.000345   0.006098   0.999514  -0.102003  -0.216000   0.032992
     2  C    0.008330   0.002152  -0.339993   0.229862  -0.037605   0.082064
     3  C   -0.001327  -0.006235   0.331028  -0.177382   0.010124  -0.021197
     4  C   -0.000590  -0.000575  -0.365682   0.203173   0.003089   0.014609
     5  C    0.000161  -0.000146   0.423436  -0.416663  -0.005327  -0.032666
     6  C   -0.000043   0.001713  -1.310001   0.097656   0.397047  -0.093183
     7  H    0.000480   0.000313  -0.214303   0.020625   0.048150  -0.092595
     8  H   -0.000434  -0.002066   0.004914   0.008146  -0.002203   0.006915
     9  H    0.000032   0.000020  -0.003799  -0.003536   0.001329  -0.001839
    10  H    0.000009   0.000001  -0.170324   0.044882  -0.014824   0.012596
    11  N    0.000422   0.000462  -0.027402   0.019438   0.000191   0.001948
    12  N    0.000603   0.000419  -0.003903   0.003487   0.000074   0.000424
    13  S   -0.082358  -0.076508   0.000220  -0.000058  -0.000149   0.000214
    14  C    0.013824   0.002731  -0.000426   0.000036   0.000062  -0.000062
    15  O    0.014979   0.017577  -0.000570  -0.000219  -0.000008   0.000072
    16  O    0.027256   0.027124  -0.000004   0.000017   0.000003   0.000005
    17  O    0.019096   0.022797  -0.000079   0.000095  -0.000019   0.000200
    18  F   -0.034347  -0.027167  -0.000012  -0.000693  -0.000070  -0.000267
    19  F    9.528829  -0.049529   0.000006  -0.000055  -0.000005  -0.000027
    20  F   -0.049529   9.513660   0.000000  -0.000039  -0.000006  -0.000027
    21  O    0.000006   0.000000   9.371104   0.129997  -0.431423   0.111234
    22  C   -0.000055  -0.000039   0.129997   4.009810   0.172542   0.247479
    23  H   -0.000005  -0.000006  -0.431423   0.172542   2.708747  -0.558186
    24  H   -0.000027  -0.000027   0.111234   0.247479  -0.558186   1.631268
    25  H    0.000085   0.000102   0.112491   0.261887  -0.544767  -0.156222
             25
     1  C    0.090770
     2  C    0.012992
     3  C   -0.012027
     4  C    0.015200
     5  C   -0.015113
     6  C   -0.099808
     7  H   -0.079688
     8  H    0.001645
     9  H   -0.001840
    10  H    0.010626
    11  N    0.001586
    12  N    0.000252
    13  S   -0.000143
    14  C    0.000136
    15  O   -0.000306
    16  O   -0.000005
    17  O    0.000229
    18  F    0.001030
    19  F    0.000085
    20  F    0.000102
    21  O    0.112491
    22  C    0.261887
    23  H   -0.544767
    24  H   -0.156222
    25  H    1.566790
 Mulliken atomic charges:
              1
     1  C    1.038163
     2  C    1.151720
     3  C    0.781132
     4  C    0.835246
     5  C    1.228815
     6  C    0.217494
     7  H   -1.209496
     8  H   -0.864836
     9  H   -0.807068
    10  H   -0.898620
    11  N    0.545161
    12  N   -0.794391
    13  S    2.321717
    14  C    1.080433
    15  O   -1.018257
    16  O   -0.981299
    17  O   -0.999184
    18  F   -0.501886
    19  F   -0.445051
    20  F   -0.432870
    21  O   -0.616023
    22  C    1.251514
    23  H   -0.530764
    24  H   -0.185749
    25  H   -0.165902
 Sum of Mulliken atomic charges =   0.00000
 Mulliken charges with hydrogens summed into heavy atoms:
              1
     1  C   -0.171333
     2  C    0.286884
     3  C    0.781132
     4  C    0.028178
     5  C    0.330195
     6  C    0.217494
    11  N    0.545161
    12  N   -0.794391
    13  S    2.321717
    14  C    1.080433
    15  O   -1.018257
    16  O   -0.981299
    17  O   -0.999184
    18  F   -0.501886
    19  F   -0.445051
    20  F   -0.432870
    21  O   -0.616023
    22  C    0.369099
 Sum of Mulliken charges with hydrogens summed into heavy atoms =   0.00000
 Electronic spatial extent (au):  <R**2>=           5575.5567
 Charge=              0.0000 electrons
 Dipole moment (field-independent basis, Debye):
    X=             17.5915    Y=              0.1788    Z=             -1.0897  Tot=             17.6262
 Quadrupole moment (field-independent basis, Debye-Ang):
   XX=           -112.4935   YY=            -86.4877   ZZ=           -114.3896
   XY=              3.8831   XZ=              0.3920   YZ=              3.5883
 Traceless Quadrupole moment (field-independent basis, Debye-Ang):
   XX=             -8.0366   YY=             17.9692   ZZ=             -9.9327
   XY=              3.8831   XZ=              0.3920   YZ=              3.5883
 Octapole moment (field-independent basis, Debye-Ang**2):
  XXX=            152.7964  YYY=             -8.6625  ZZZ=              2.7653  XYY=             64.1760
  XXY=            -60.3977  XXZ=              2.6790  XZZ=              2.8772  YZZ=            -12.8173
  YYZ=              1.7522  XYZ=             16.6942
 Hexadecapole moment (field-independent basis, Debye-Ang**3):
 XXXX=          -4806.7396 YYYY=          -1562.3894 ZZZZ=           -389.7489 XXXY=            -10.1923
 XXXZ=             29.0242 YYYX=              5.0225 YYYZ=             16.5209 ZZZX=             -8.5850
 ZZZY=             -0.1387 XXYY=           -904.1149 XXZZ=           -871.4510 YYZZ=           -350.0213
 XXYZ=             54.6388 YYXZ=              9.1906 ZZXY=             23.7514
 N-N= 1.555784754836D+03 E-N=-6.451843315921D+03  KE= 1.409885525586D+03
 No NMR shielding tensors so no spin-rotation constants.
 Leave Link  601 at Sun Nov 20 09:54:52 2016, MaxMem=  524288000 cpu:       2.6
 (Enter /home/ubuntu/g09/l701.exe)
 Compute integral first derivatives.
 ... and contract with generalized density number  0.
 D1PCM: C-PCM CHGder 1st derivatives, ID1Alg=3 FixD1E=F DoIter=F DoCFld=F I1PDM=0.
 GePol: Maximum number of non-zero 1st derivatives   =     227
 Leave Link  701 at Sun Nov 20 09:54:58 2016, MaxMem=  524288000 cpu:      46.1
 (Enter /home/ubuntu/g09/l702.exe)
 L702 exits ... SP integral derivatives will be done elsewhere.
 Leave Link  702 at Sun Nov 20 09:54:58 2016, MaxMem=  524288000 cpu:       0.2
 (Enter /home/ubuntu/g09/l703.exe)
 Compute integral first derivatives, UseDBF=F ICtDFT=           0.
 Integral derivatives from FoFDir, PRISM(SPDF).
 Calling FoFJK, ICntrl=      2127 FMM=F ISym2X=0 I1Cent= 0 IOpClX= 0 NMat=1 NMatS=1 NMatT=0.
 FoFCou: FMM=F IPFlag=           0 FMFlag=      100000 FMFlg1=         800
         NFxFlg=           0 DoJE=F BraDBF=F KetDBF=F FulRan=T
         Omega=  0.000000  0.000000  1.000000  0.000000  0.000000 ICntrl=    2127 IOpCl=  0
         NMat0=    1 NMatS0=    1 NMatT0=    0 NMatD0=    1 NMtDS0=    0 NMtDT0=    0
         I1Cent=           0 NGrid=           0.
 Symmetry not used in FoFCou.
 Leave Link  703 at Sun Nov 20 09:56:58 2016, MaxMem=  524288000 cpu:     840.6
 (Enter /home/ubuntu/g09/l716.exe)
 Dipole        = 6.92104545D+00 7.03634892D-02-4.28740052D-01
 -------------------------------------------------------------------
 Center     Atomic                   Forces (Hartrees/Bohr)
 Number     Number              X              Y              Z
 -------------------------------------------------------------------
      1        6          -0.003934964   -0.001045149   -0.001400944
      2        6           0.000888383   -0.001543338   -0.000947623
      3        6          -0.001905625    0.003875504    0.000351053
      4        6           0.002287248    0.001010067    0.001606031
      5        6          -0.000961621   -0.000014859   -0.000208707
      6        6           0.004207627   -0.000340842    0.001281663
      7        1           0.000731907    0.000066625   -0.000227989
      8        1           0.005706985   -0.000748925    0.000418554
      9        1          -0.000099232   -0.000316167   -0.000517331
     10        1          -0.000270887    0.000576879   -0.000062031
     11        7           0.006894066   -0.001799141   -0.001001046
     12        7          -0.000755766    0.001497489    0.000065177
     13       16           0.020330513   -0.004776589   -0.004109220
     14        6           0.007699566   -0.004447971   -0.001428306
     15        8          -0.009191870   -0.001502885    0.000376838
     16        8          -0.009496892    0.003284916    0.001572427
     17        8          -0.010084683   -0.000320278    0.003450645
     18        9          -0.005995384    0.003893315    0.001103991
     19        9          -0.001478518    0.000734529    0.001517893
     20        9          -0.001916827    0.000644877   -0.000925118
     21        8          -0.002885187    0.003615821    0.000074773
     22        6           0.000004577   -0.003113532   -0.001447542
     23        1          -0.000271306    0.000088883   -0.000079299
     24        1           0.000083816    0.000263585    0.000599287
     25        1           0.000414073    0.000417185   -0.000063175
 -------------------------------------------------------------------
 Cartesian Forces:  Max     0.020330513 RMS     0.003820075
 Leave Link  716 at Sun Nov 20 09:56:58 2016, MaxMem=  524288000 cpu:       0.2
 (Enter /home/ubuntu/g09/l103.exe)

 GradGradGradGradGradGradGradGradGradGradGradGradGradGradGradGradGradGrad
 Berny optimization.
 Search for a local minimum.
 Step number   1 out of a maximum of  150
 All quantities printed in internal units (Hartrees-Bohrs-Radians)
 Second derivative matrix not updated -- first step.
 ITU=  0
     Eigenvalues ---    0.00000   0.00000   0.00000   0.00000   0.00000
     Eigenvalues ---    0.00000   0.00190   0.00212   0.00238   0.00476
     Eigenvalues ---    0.00981   0.01612   0.02026   0.02226   0.02835
     Eigenvalues ---    0.03493   0.03535   0.03937   0.04168   0.04882
     Eigenvalues ---    0.06232   0.06843   0.07249   0.07736   0.07783
     Eigenvalues ---    0.08325   0.09548   0.10920   0.11774   0.12494
     Eigenvalues ---    0.12855   0.13037   0.13204   0.14442   0.14763
     Eigenvalues ---    0.14863   0.14911   0.16055   0.19671   0.20382
     Eigenvalues ---    0.22085   0.27436   0.30279   0.32471   0.36752
     Eigenvalues ---    0.39918   0.43895   0.47348   0.49751   0.67360
     Eigenvalues ---    0.74200   0.87789   0.89039   0.92127   1.00799
     Eigenvalues ---    1.02614   1.06833   1.14144   1.27328   1.35878
     Eigenvalues ---    1.41822   1.42195   1.45560   1.55494   1.72389
     Eigenvalues ---    1.82438   2.05492   3.60800  27.81357
 RFO step:  Lambda=-6.29396396D-03 EMin= 1.24930266D-16
 Linear search not attempted -- first point.
 Maximum step size (   0.300) exceeded in Quadratic search.
    -- Step size scaled by   0.346
 TrRot= -0.009014 -0.002174  0.001489  0.618356  0.000477 -0.617977
 Variable       Old X    -DE/DX   Delta X   Delta X   Delta X     New X
                                 (Linear)    (Quad)   (Total)
    X1        4.14687  -0.00393   0.00000   0.04052   0.03154   4.17842
    Y1       -1.22898  -0.00105   0.00000   0.00923   0.00834  -1.22065
    Z1       -1.08752  -0.00140   0.00000  -0.00547  -0.00527  -1.09279
    X2        2.25730   0.00089   0.00000   0.05632   0.04656   2.30386
    Y2        0.56843  -0.00154   0.00000   0.02020   0.01853   0.58696
    Z2       -1.30737  -0.00095   0.00000  -0.01980  -0.01937  -1.32674
    X3        2.70514  -0.00191   0.00000   0.05826   0.04800   2.75314
    Y3        2.97685   0.00388   0.00000   0.01984   0.01863   2.99548
    Z3       -0.27596   0.00035   0.00000  -0.01496  -0.01538  -0.29133
    X4        4.97213   0.00229   0.00000   0.04966   0.03965   5.01178
    Y4        3.63706   0.00101   0.00000   0.00882   0.00882   3.64588
    Z4        0.97502   0.00161   0.00000   0.00462   0.00315   0.97818
    X5        6.82418  -0.00096   0.00000   0.03864   0.02940   6.85358
    Y5        1.81975  -0.00001   0.00000  -0.00009   0.00067   1.82042
    Z5        1.17490  -0.00021   0.00000   0.01322   0.01154   1.18644
    X6        6.42768   0.00421   0.00000   0.03540   0.02669   6.45437
    Y6       -0.62726  -0.00034   0.00000   0.00185   0.00217  -0.62509
    Z6        0.15611   0.00128   0.00000   0.00834   0.00749   0.16360
    X7        3.81175   0.00073   0.00000   0.03725   0.02869   3.84043
    Y7       -3.10344   0.00007   0.00000   0.01094   0.00971  -3.09373
    Z7       -1.85327  -0.00023   0.00000  -0.00855  -0.00770  -1.86098
    X8        0.43054   0.00571   0.00000   0.06935   0.05938   0.48992
    Y8        0.19818  -0.00075   0.00000   0.02281   0.02020   0.21838
    Z8       -2.19701   0.00042   0.00000  -0.03768  -0.03644  -2.23346
    X9        5.22927  -0.00010   0.00000   0.04887   0.03845   5.26772
    Y9        5.51855  -0.00032   0.00000   0.00721   0.00753   5.52608
    Z9        1.76476  -0.00052   0.00000   0.00674   0.00465   1.76941
   X10        8.60258  -0.00027   0.00000   0.03375   0.02473   8.62731
   Y10        2.21754   0.00058   0.00000  -0.00518  -0.00349   2.21405
   Z10        2.12732  -0.00006   0.00000   0.02281   0.02033   2.14765
   X11        0.84478   0.00689   0.00000   0.07264   0.06162   0.90640
   Y11        4.77432  -0.00180   0.00000   0.02977   0.02781   4.80213
   Z11       -0.45816  -0.00100   0.00000  -0.02721  -0.02740  -0.48557
   X12       -0.60367  -0.00076   0.00000   0.07899   0.06733  -0.53635
   Y12        6.29182   0.00150   0.00000   0.03547   0.03292   6.32475
   Z12       -0.61735   0.00007   0.00000  -0.03600  -0.03606  -0.65341
   X13       -4.34510   0.02033   0.00000  -0.07550  -0.08481  -4.42991
   Y13        0.88961  -0.00478   0.00000  -0.01660  -0.02043   0.86918
   Z13        0.06476  -0.00411   0.00000   0.01294   0.01590   0.08066
   X14       -4.59262   0.00770   0.00000  -0.02897  -0.03686  -4.62948
   Y14       -2.68557  -0.00445   0.00000  -0.01690  -0.02075  -2.70632
   Z14        0.25009  -0.00143   0.00000  -0.00095   0.00309   0.25317
   X15       -2.45785  -0.00919   0.00000  -0.08835  -0.09711  -2.55496
   Y15        1.50371  -0.00150   0.00000  -0.00274  -0.00529   1.49842
   Z15        2.11413   0.00038   0.00000   0.01723   0.01930   2.13343
   X16       -6.97267  -0.00950   0.00000  -0.08755  -0.09703  -7.06971
   Y16        1.79305   0.00328   0.00000  -0.05010  -0.05482   1.73823
   Z16        0.46013   0.00157   0.00000   0.03552   0.03927   0.49940
   X17       -3.25037  -0.01008   0.00000  -0.12215  -0.13266  -3.38302
   Y17        1.30421  -0.00032   0.00000   0.01511   0.01096   1.31517
   Z17       -2.55058   0.00345   0.00000   0.00166   0.00409  -2.54649
   X18       -2.29067  -0.00600   0.00000  -0.01870  -0.02635  -2.31702
   Y18       -3.76192   0.00389   0.00000   0.01672   0.01362  -3.74829
   Z18       -0.15959   0.00110   0.00000  -0.00420  -0.00078  -0.16037
   X19       -5.39866  -0.00148   0.00000  -0.02241  -0.02913  -5.42779
   Y19       -3.43416   0.00073   0.00000  -0.02693  -0.03045  -3.46461
   Z19        2.53775   0.00152   0.00000  -0.00109   0.00346   2.54121
   X20       -6.18883  -0.00192   0.00000  -0.02269  -0.03092  -6.21975
   Y20       -3.58933   0.00064   0.00000  -0.02326  -0.02820  -3.61753
   Z20       -1.50488  -0.00093   0.00000  -0.00432   0.00058  -1.50430
   X21        8.34499  -0.00289   0.00000   0.02430   0.01633   8.36133
   Y21       -2.24656   0.00362   0.00000  -0.00697  -0.00584  -2.25240
   Z21        0.47967   0.00007   0.00000   0.01232   0.01118   0.49085
   X22        8.10698   0.00000   0.00000   0.01367   0.00631   8.11329
   Y22       -4.79493  -0.00311   0.00000  -0.00469  -0.00390  -4.79883
   Z22       -0.43534  -0.00145   0.00000   0.00261   0.00227  -0.43307
   X23        9.88149  -0.00027   0.00000   0.00891   0.00210   9.88359
   Y23       -5.72011   0.00009   0.00000  -0.01384  -0.01225  -5.73236
   Z23        0.07272  -0.00008   0.00000   0.00055  -0.00022   0.07250
   X24        7.86634   0.00008   0.00000   0.01400   0.00583   7.87218
   Y24       -4.81107   0.00026   0.00000   0.00428   0.00441  -4.80667
   Z24       -2.49659   0.00060   0.00000   0.00306   0.00281  -2.49378
   X25        6.51666   0.00041   0.00000   0.00891   0.00226   6.51893
   Y25       -5.75527   0.00042   0.00000   0.00066   0.00110  -5.75418
   Z25        0.48878  -0.00006   0.00000  -0.00104  -0.00050   0.48828
         Item               Value     Threshold  Converged?
 Maximum Force            0.020331     0.000002     NO 
 RMS     Force            0.003820     0.000001     NO 
 Maximum Displacement     0.132657     0.000006     NO 
 RMS     Displacement     0.034193     0.000004     NO 
 Predicted change in Energy=-2.085996D-03
 GradGradGradGradGradGradGradGradGradGradGradGradGradGradGradGradGradGrad

 Leave Link  103 at Sun Nov 20 09:56:58 2016, MaxMem=  524288000 cpu:       0.2
 (Enter /home/ubuntu/g09/l202.exe)
                          Input orientation:                          
 ---------------------------------------------------------------------
 Center     Atomic      Atomic             Coordinates (Angstroms)
 Number     Number       Type             X           Y           Z
 ---------------------------------------------------------------------
      1          6           0        2.211122   -0.645938   -0.578279
      2          6           0        1.219151    0.310608   -0.702080
      3          6           0        1.456898    1.585138   -0.154167
      4          6           0        2.652120    1.929318    0.517629
      5          6           0        3.626758    0.963323    0.627835
      6          6           0        3.415503   -0.330781    0.086573
      7          1           0        2.032270   -1.637132   -0.984787
      8          1           0        0.259254    0.115561   -1.181895
      9          1           0        2.787555    2.924274    0.936332
     10          1           0        4.565375    1.171625    1.136488
     11          7           0        0.479648    2.541176   -0.256951
     12          7           0       -0.283823    3.346911   -0.345771
     13         16           0       -2.344209    0.459951    0.042685
     14          6           0       -2.449817   -1.432122    0.133973
     15          8           0       -1.352028    0.792930    1.128962
     16          8           0       -3.741128    0.919832    0.264272
     17          8           0       -1.790219    0.695959   -1.347545
     18          9           0       -1.226116   -1.983511   -0.084863
     19          9           0       -2.872264   -1.833395    1.344753
     20          9           0       -3.291350   -1.914313   -0.796042
     21          8           0        4.424623   -1.191919    0.259748
     22          6           0        4.293368   -2.539434   -0.229169
     23          1           0        5.230172   -3.033432    0.038364
     24          1           0        4.165778   -2.543579   -1.319651
     25          1           0        3.449668   -3.044981    0.258387
 ---------------------------------------------------------------------
                    Distance matrix (angstroms):
                    1          2          3          4          5
     1  C    0.000000
     2  C    1.383587   0.000000
     3  C    2.392995   1.407537   0.000000
     4  C    2.833272   2.482199   1.413620   0.000000
     5  C    2.459361   2.826886   2.388822   1.376667   0.000000
     6  C    1.411342   2.420189   2.750425   2.424172   1.418555
     7  H    1.086141   2.129502   3.376982   3.919315   3.450407
     8  H    2.180372   1.090719   2.156440   3.450203   3.915854
     9  H    3.920808   3.460569   2.180165   1.087931   2.155171
    10  H    3.433143   3.913937   3.391078   2.148868   1.087713
    11  N    3.641284   2.391744   1.370982   2.386205   3.629982
    12  N    4.713985   3.406615   2.484082   3.372653   4.682098
    13  S    4.728597   3.643421   3.969032   5.229523   6.020651
    14  C    4.780140   4.146976   4.944624   6.121782   6.550329
    15  O    4.204884   3.193166   3.188115   4.206935   5.006842
    16  O    6.212151   5.090124   5.257110   6.477412   7.376979
    17  O    4.289894   3.101843   3.571914   4.973371   5.772110
    18  F    3.721178   3.409291   4.465269   5.542016   5.722076
    19  F    5.563175   5.052321   5.716185   6.735054   7.111462
    20  F    5.650964   5.030280   5.933298   7.198893   7.626823
    21  O    2.428985   3.668480   4.085432   3.598664   2.327475
    22  C    2.836010   4.218672   5.006324   4.818832   3.667169
    23  H    3.898082   5.274386   5.967064   5.612926   4.346546
    24  H    2.823358   4.148540   5.073725   5.066908   4.047419
    25  H    2.826555   4.142182   5.057601   5.044495   4.029187
                    6          7          8          9         10
     6  C    0.000000
     7  H    2.183506   0.000000
     8  H    3.430764   2.500875   0.000000
     9  H    3.422250   5.006753   4.332212   0.000000
    10  H    2.163736   4.336536   5.003284   2.504493   0.000000
    11  N    4.121334   4.516486   2.605322   2.626237   4.528853
    12  N    5.234248   5.532930   3.381665   3.354962   5.517579
    13  S    5.813903   4.960548   2.897623   5.762508   7.031731
    14  C    5.968013   4.624149   3.386132   6.859448   7.549666
    15  O    5.007859   4.671896   2.897432   4.660030   5.929513
    16  O    7.267255   6.436641   4.329123   6.862446   8.355966
    17  O    5.496402   4.492920   2.136502   5.580099   6.840341
    18  F    4.930064   3.398076   2.795694   6.421740   6.707306
    19  F    6.586113   5.433206   4.470881   7.405118   8.024462
    20  F    6.947551   5.334172   4.108048   7.960285   8.659435
    21  O    1.337860   2.733209   4.597623   4.481160   2.524841
    22  C    2.397600   2.549052   4.922475   5.786015   3.963706
    23  H    3.255713   3.636354   6.009594   6.501306   4.396628
    24  H    2.727059   2.342143   4.727677   6.073415   4.471581
    25  H    2.719846   2.352984   4.716161   6.044005   4.449227
                   11         12         13         14         15
    11  N    0.000000
    12  N    1.113546   0.000000
    13  S    3.520717   3.568000   0.000000
    14  C    4.951937   5.268855   1.897216   0.000000
    15  O    2.886547   3.136673   1.508408   2.673200   0.000000
    16  O    4.551416   4.268001   1.487271   2.686289   2.543933
    17  O    3.121942   3.209413   1.515040   2.675573   2.516844
    18  F    4.838599   5.419354   2.690151   1.359913   3.032796
    19  F    5.739132   6.032700   2.689546   1.343678   3.042247
    20  F    5.861948   6.076878   2.690292   1.343732   3.846528
    21  O    5.455804   6.567883   6.970859   6.879784   6.169672
    22  C    6.352781   7.457434   7.288871   6.843139   6.694749
    23  H    7.330140   8.441592   8.341163   7.845736   7.691281
    24  H    6.369585   7.446157   7.297745   6.863996   6.897403
    25  H    6.347577   7.426994   6.774960   6.117247   6.208360
                   16         17         18         19         20
    16  O    0.000000
    17  O    2.540497   0.000000
    18  F    3.857018   3.015318   0.000000
    19  F    3.082632   3.849275   2.185438   0.000000
    20  F    3.059240   3.061220   2.185350   2.182930   0.000000
    21  O    8.434394   6.691168   5.716312   7.404950   7.821303
    22  C    8.761457   6.980585   5.549286   7.370345   7.631518
    23  H    9.806302   8.069386   6.542260   8.294348   8.635103
    24  H    8.776286   6.780065   5.559756   7.558931   7.501926
    25  H    8.211414   6.635515   4.807025   6.528012   6.916035
                   21         22         23         24         25
    21  O    0.000000
    22  C    1.439467   0.000000
    23  H    2.022151   1.092342   0.000000
    24  H    2.094871   1.097928   1.793626   0.000000
    25  H    2.093891   1.097778   1.794085   1.804001   0.000000
 Symmetry turned off by external request.
 Stoichiometry    C8H7F3N2O4S
 Framework group  C1[X(C8H7F3N2O4S)]
 Deg. of freedom    69
 Full point group                 C1      NOp   1
 Rotational constants (GHZ):      0.5781424      0.2317792      0.1803404
 Leave Link  202 at Sun Nov 20 09:56:58 2016, MaxMem=  524288000 cpu:       0.0
 (Enter /home/ubuntu/g09/l301.exe)
 Standard basis: Aug-CC-pVDZ (5D, 7F)
 Ernie: Thresh=  0.10000D-02 Tol=  0.10000D-05 Strict=F.
 Ernie:  44 primitive shells out of 527 were deleted.
 Integral buffers will be    131072 words long.
 Raffenetti 2 integral format.
 Two-electron integral symmetry is turned off.
   481 basis functions,   889 primitive gaussians,   517 cartesian basis functions
    72 alpha electrons       72 beta electrons
       nuclear repulsion energy      1549.4853325653 Hartrees.
 IExCor=  402 DFT=T Ex+Corr=B3LYP ExCW=0 ScaHFX=  0.200000
 ScaDFX=  0.800000  0.720000  1.000000  0.810000 ScalE2=  1.000000  1.000000
 IRadAn=      4 IRanWt=     -1 IRanGd=            0 ICorTp=0
 NAtoms=   25 NActive=   25 NUniq=   25 SFac= 1.00D+00 NAtFMM=   50 NAOKFM=F Big=F
 ------------------------------------------------------------------------------
 Polarizable Continuum Model (PCM)
 =================================
 Model                : C-PCM.
 Atomic radii         : UFF (Universal Force Field).
 Polarization charges : Total charges.
 Charge compensation  : None.
 Solution method      : Matrix inversion.
 Cavity type          : Scaled VdW (van der Waals Surface) (Alpha=1.100).
 Cavity algorithm     : GePol (No added spheres)
                        Default sphere list used, NSphG=   25.
                        Lebedev-Laikov grids with approx.  5.0 points / Ang**2.
                        Smoothing algorithm: Karplus/York (Gamma=1.0000).
                        Polarization charges: spherical gaussians, with
                                              point-specific exponents (IZeta= 3).
                        Self-potential: point-specific (ISelfS= 7).
                        Self-field    : sphere-specific E.n sum rule (ISelfD= 2).
 1st derivatives      : Analytical E(r).r(x)/FMM algorithm (CHGder, D1EAlg=3).
                        Cavity 1st derivative terms included.
 Solvent              : Water, Eps=  78.355300 Eps(inf)=   1.777849
 ------------------------------------------------------------------------------
 GePol: Number of generator spheres                  =      25
 GePol: Total number of spheres                      =      25
 GePol: Number of exposed spheres                    =      25 (100.00%)
 GePol: Number of points                             =    2371
 GePol: Average weight of points                     =       0.13
 GePol: Minimum weight of points                     =   0.48D-10
 GePol: Maximum weight of points                     =    0.20577
 GePol: Number of points with low weight             =     120
 GePol: Fraction of low-weight points (<1% of avg)   =       5.06%
 GePol: Cavity surface area                          =    306.099 Ang**2
 GePol: Cavity volume                                =    320.594 Ang**3
 Leave Link  301 at Sun Nov 20 09:56:58 2016, MaxMem=  524288000 cpu:       0.4
 (Enter /home/ubuntu/g09/l302.exe)
 NPDir=0 NMtPBC=     1 NCelOv=     1 NCel=       1 NClECP=     1 NCelD=      1
         NCelK=      1 NCelE2=     1 NClLst=     1 CellRange=     0.0.
 One-electron integrals computed using PRISM.
 NBasis=   481 RedAO= T  NBF=   481
 NBsUse=   481 1.00D-06 NBFU=   481
 Precomputing XC quadrature grid using
 IXCGrd= 2 IRadAn=           4 IRanWt=          -1 IRanGd=           0 AccXCQ= 0.00D+00.
 NRdTot=    1639 NPtTot=      208622 NUsed=      220433 NTot=      220465
 NSgBfM=   516   516   516   516   516 NAtAll=    25    25.
 Leave Link  302 at Sun Nov 20 09:56:59 2016, MaxMem=  524288000 cpu:       5.2
 (Enter /home/ubuntu/g09/l303.exe)
 DipDrv:  MaxL=1.
 Leave Link  303 at Sun Nov 20 09:56:59 2016, MaxMem=  524288000 cpu:       0.6
 (Enter /home/ubuntu/g09/l401.exe)
 Initial guess read from the read-write file.
 B after Tr=     0.000000    0.000000    0.000000
         Rot=    1.000000    0.000000    0.000000    0.000000 Ang=   0.00 deg.
 Guess basis will be translated and rotated to current coordinates.
 Generating alternative initial guess.
 Harris functional with IExCor=  402 diagonalized for initial guess.
 ExpMin= 2.97D-02 ExpMax= 1.11D+05 ExpMxC= 1.07D+03 IAcc=3 IRadAn=         4 AccDes= 0.00D+00
 HarFok:  IExCor=  402 AccDes= 0.00D+00 IRadAn=         4 IDoV= 1
 ScaDFX=  1.000000  1.000000  1.000000  1.000000
 FoFCou: FMM=F IPFlag=           0 FMFlag=      100000 FMFlg1=           0
         NFxFlg=           0 DoJE=T BraDBF=F KetDBF=T FulRan=T
         Omega=  0.000000  0.000000  1.000000  0.000000  0.000000 ICntrl=     500 IOpCl=  0
         NMat0=    1 NMatS0=    1 NMatT0=    0 NMatD0=    1 NMtDS0=    0 NMtDT0=    0
         I1Cent=           4 NGrid=           0.
 Symmetry not used in FoFCou.
 Harris En= -1417.17426400077    
 Leave Link  401 at Sun Nov 20 09:57:03 2016, MaxMem=  524288000 cpu:      29.0
 (Enter /home/ubuntu/g09/l508.exe)
 Direct SCF.
 Tight linear equation convergence will be used.
 RB3LYP wavefunction.
 Quadratic Convergence SCF Method.
 Line search only if initial step raises energy.
 Two-electron integral symmetry not used.
 ReadGW:  IGet=1 IStart=           2 Next=      220197 LGW=      220195.
 Pruned (  75, 302) grid will be used in CalDFT.
 Iteration   1 EE= -1417.21092723047                                    Grad=6.649D-02
 Gradient too large for Newton-Raphson -- use scaled steepest descent instead.
     ILin= 1 X=0.000D+00 Y=-1.417210927230D+03 DE= 0.00D+00
     ILin= 2 X=3.000D-01 Y=-1.417211852905D+03 DE=-9.26D-04
     ILin= 3 X=4.243D-01 Y=-1.417212144546D+03 DE=-1.22D-03
     ILin= 4 X=6.000D-01 Y=-1.417212465192D+03 DE=-1.54D-03
     ILin= 5 X=8.485D-01 Y=-1.417212735042D+03 DE=-1.81D-03
     ILin= 6 X=1.200D+00 Y=-1.417212749393D+03 DE=-1.82D-03
     ILin= 7 X=1.697D+00 Y=-1.417212035022D+03 DE=-1.11D-03
     An  expanding polynomial of degree  7 produced  1.0360
 Iteration   2 EE= -1417.21279624630     Delta-E=       -0.001869015834 Grad=7.863D-03
 QCNR:  CnvC1=2.43D-08 CnvC2=2.43D-07
 LinEq1:  Iter=  0 NonCon=     1 RMS=4.71D-05 Max=3.28D-03
 AX will form     1 AO Fock derivatives at one time.
 LinEq1:  Iter=  1 NonCon=     1 RMS=3.77D-05 Max=1.58D-03
 LinEq1:  Iter=  2 NonCon=     1 RMS=3.50D-05 Max=2.64D-03
 LinEq1:  Iter=  3 NonCon=     1 RMS=1.98D-05 Max=6.35D-04
 LinEq1:  Iter=  4 NonCon=     1 RMS=1.00D-05 Max=2.88D-04
 LinEq1:  Iter=  5 NonCon=     1 RMS=6.27D-06 Max=2.76D-04
 LinEq1:  Iter=  6 NonCon=     1 RMS=4.66D-06 Max=3.10D-04
 LinEq1:  Iter=  7 NonCon=     1 RMS=2.61D-06 Max=1.21D-04
 LinEq1:  Iter=  8 NonCon=     1 RMS=1.67D-06 Max=6.54D-05
 LinEq1:  Iter=  9 NonCon=     1 RMS=7.84D-07 Max=2.94D-05
 LinEq1:  Iter= 10 NonCon=     1 RMS=5.95D-07 Max=2.79D-05
 LinEq1:  Iter= 11 NonCon=     1 RMS=2.87D-07 Max=6.90D-06
 LinEq1:  Iter= 12 NonCon=     1 RMS=1.34D-07 Max=3.99D-06
 LinEq1:  Iter= 13 NonCon=     1 RMS=8.66D-08 Max=1.77D-06
 LinEq1:  Iter= 14 NonCon=     1 RMS=6.14D-08 Max=1.21D-06
 LinEq1:  Iter= 15 NonCon=     1 RMS=4.19D-08 Max=1.10D-06
 LinEq1:  Iter= 16 NonCon=     1 RMS=1.90D-08 Max=6.19D-07
 LinEq1:  Iter= 17 NonCon=     1 RMS=1.28D-08 Max=3.66D-07
 LinEq1:  Iter= 18 NonCon=     0 RMS=6.45D-09 Max=1.71D-07
 Linear equations converged to 2.427D-08 2.427D-07 after    18 iterations.
 Angle between quadratic step and gradient=  42.46 degrees.
     ILin= 1 X=0.000D+00 Y=-1.417212796246D+03 DE= 0.00D+00
     ILin= 2 X=1.000D+00 Y=-1.417212825069D+03 DE=-2.88D-05
     ILin= 3 X=1.414D+00 Y=-1.417212820125D+03 DE=-2.39D-05
     An  expanding polynomial of degree  3 produced  1.0000
 Iteration   3 EE= -1417.21282506922     Delta-E=       -0.000028822918 Grad=4.309D-06
 QCNR:  CnvC1=4.31D-11 CnvC2=4.31D-10
 LinEq1:  Iter=  0 NonCon=     1 RMS=2.97D-08 Max=1.75D-06
 LinEq1:  Iter=  1 NonCon=     1 RMS=1.39D-08 Max=1.06D-06
 LinEq1:  Iter=  2 NonCon=     1 RMS=5.82D-09 Max=2.94D-07
 LinEq1:  Iter=  3 NonCon=     1 RMS=5.51D-09 Max=3.75D-07
 LinEq1:  Iter=  4 NonCon=     1 RMS=4.84D-09 Max=1.92D-07
 LinEq1:  Iter=  5 NonCon=     1 RMS=2.38D-09 Max=1.26D-07
 LinEq1:  Iter=  6 NonCon=     1 RMS=1.63D-09 Max=7.23D-08
 LinEq1:  Iter=  7 NonCon=     1 RMS=1.04D-09 Max=3.45D-08
 LinEq1:  Iter=  8 NonCon=     1 RMS=6.61D-10 Max=2.86D-08
 LinEq1:  Iter=  9 NonCon=     1 RMS=4.33D-10 Max=1.53D-08
 LinEq1:  Iter= 10 NonCon=     1 RMS=2.65D-10 Max=1.44D-08
 LinEq1:  Iter= 11 NonCon=     1 RMS=1.37D-10 Max=7.36D-09
 LinEq1:  Iter= 12 NonCon=     1 RMS=7.95D-11 Max=5.05D-09
 LinEq1:  Iter= 13 NonCon=     1 RMS=3.88D-11 Max=1.30D-09
 LinEq1:  Iter= 14 NonCon=     1 RMS=2.30D-11 Max=5.17D-10
 LinEq1:  Iter= 15 NonCon=     1 RMS=1.68D-11 Max=7.49D-10
 LinEq1:  Iter= 16 NonCon=     1 RMS=1.55D-11 Max=6.81D-10
 LinEq1:  Iter= 17 NonCon=     0 RMS=1.52D-11 Max=2.79D-10
 Linear equations converged to 4.309D-11 4.309D-10 after    17 iterations.
 Angle between quadratic step and gradient=  38.05 degrees.
     ILin= 1 X=0.000D+00 Y=-1.417212825069D+03 DE= 0.00D+00
     ILin= 2 X=1.000D+00 Y=-1.417212825069D+03 DE= 2.36D-11
     ILin= 3 X=1.414D+00 Y=-1.417212825069D+03 DE=-4.05D-11
     ILin= 4 X=2.000D+00 Y=-1.417212825069D+03 DE=-1.82D-12
     An  expanding polynomial of degree  4 produced  1.6281
 Iteration   4 EE= -1417.21282506920     Delta-E=        0.000000000016 Grad=2.706D-06
 QCNR:  CnvC1=2.71D-11 CnvC2=2.71D-10
 LinEq1:  Iter=  0 NonCon=     1 RMS=1.87D-08 Max=1.10D-06
 LinEq1:  Iter=  1 NonCon=     1 RMS=8.76D-09 Max=6.65D-07
 LinEq1:  Iter=  2 NonCon=     1 RMS=3.66D-09 Max=1.84D-07
 LinEq1:  Iter=  3 NonCon=     1 RMS=3.46D-09 Max=2.35D-07
 LinEq1:  Iter=  4 NonCon=     1 RMS=3.04D-09 Max=1.21D-07
 LinEq1:  Iter=  5 NonCon=     1 RMS=1.49D-09 Max=7.93D-08
 LinEq1:  Iter=  6 NonCon=     1 RMS=1.02D-09 Max=4.54D-08
 LinEq1:  Iter=  7 NonCon=     1 RMS=6.53D-10 Max=2.17D-08
 LinEq1:  Iter=  8 NonCon=     1 RMS=4.15D-10 Max=1.79D-08
 LinEq1:  Iter=  9 NonCon=     1 RMS=2.73D-10 Max=9.54D-09
 LinEq1:  Iter= 10 NonCon=     1 RMS=1.69D-10 Max=8.82D-09
 LinEq1:  Iter= 11 NonCon=     1 RMS=8.97D-11 Max=4.20D-09
 LinEq1:  Iter= 12 NonCon=     1 RMS=5.68D-11 Max=2.35D-09
 LinEq1:  Iter= 13 NonCon=     1 RMS=2.99D-11 Max=8.13D-10
 LinEq1:  Iter= 14 NonCon=     1 RMS=2.17D-11 Max=6.51D-10
 LinEq1:  Iter= 15 NonCon=     1 RMS=1.43D-11 Max=5.52D-10
 LinEq1:  Iter= 16 NonCon=     1 RMS=1.31D-11 Max=5.69D-10
 LinEq1:  Iter= 17 NonCon=     1 RMS=1.22D-11 Max=2.73D-10
 LinEq1:  Iter= 18 NonCon=     0 RMS=1.33D-11 Max=2.42D-10
 Linear equations converged to 2.706D-11 2.706D-10 after    18 iterations.
 Angle between quadratic step and gradient=  38.05 degrees.
     ILin= 1 X=0.000D+00 Y=-1.417212825069D+03 DE= 0.00D+00
     ILin= 2 X=1.000D+00 Y=-1.417212825069D+03 DE=-4.50D-11
 Iteration   5 EE= -1417.21282506925     Delta-E=       -0.000000000045 Grad=1.076D-08
 Error on total polarization charges =  0.01508
 Rotation gradient small -- convergence achieved.
 Density matrix is not symmetric, so final MOs not symmetrized.
 SCF Done:  E(RB3LYP) =  -1417.21282507     a.u. after    5 cycles
            Convg  =    0.1076D-07                    69 Fock formations.
              S**2 =  0.0000                  -V/T =  2.0052
 Leave Link  508 at Sun Nov 20 10:40:18 2016, MaxMem=  524288000 cpu:   18154.6
 (Enter /home/ubuntu/g09/l701.exe)
 Compute integral first derivatives.
 ... and contract with generalized density number  0.
 D1PCM: C-PCM CHGder 1st derivatives, ID1Alg=3 FixD1E=F DoIter=F DoCFld=F I1PDM=0.
 GePol: Maximum number of non-zero 1st derivatives   =     229
 Leave Link  701 at Sun Nov 20 10:40:24 2016, MaxMem=  524288000 cpu:      46.0
 (Enter /home/ubuntu/g09/l702.exe)
 L702 exits ... SP integral derivatives will be done elsewhere.
 Leave Link  702 at Sun Nov 20 10:40:24 2016, MaxMem=  524288000 cpu:       0.1
 (Enter /home/ubuntu/g09/l703.exe)
 Compute integral first derivatives, UseDBF=F ICtDFT=           0.
 Integral derivatives from FoFDir, PRISM(SPDF).
 Calling FoFJK, ICntrl=      2127 FMM=F ISym2X=0 I1Cent= 0 IOpClX= 0 NMat=1 NMatS=1 NMatT=0.
 FoFCou: FMM=F IPFlag=           0 FMFlag=      100000 FMFlg1=         800
         NFxFlg=           0 DoJE=F BraDBF=F KetDBF=F FulRan=T
         Omega=  0.000000  0.000000  1.000000  0.000000  0.000000 ICntrl=    2127 IOpCl=  0
[...]
 Rotational constants (GHZ):      0.5804641      0.1874240      0.1559031
 Leave Link  202 at Wed Nov 23 00:16:26 2016, MaxMem=  524288000 cpu:       0.0
 (Enter /home/ubuntu/g09/l601.exe)
 Copying SCF densities to generalized density rwf, IOpCl= 0 IROHF=0.

 **********************************************************************

            Population analysis using the SCF density.

 **********************************************************************

 Alpha  occ. eigenvalues --  -89.12845 -24.76422 -24.76421 -24.76413 -19.22410
 Alpha  occ. eigenvalues --  -19.14377 -19.14307 -19.14303 -14.55458 -14.51406
 Alpha  occ. eigenvalues --  -10.45728 -10.30779 -10.30605 -10.25581 -10.25522
 Alpha  occ. eigenvalues --  -10.25235 -10.23247 -10.23229  -8.15426  -6.11756
 Alpha  occ. eigenvalues --   -6.11751  -6.11739  -1.33829  -1.25344  -1.25331
 Alpha  occ. eigenvalues --   -1.20665  -1.12158  -1.11683  -0.99162  -0.99024
 Alpha  occ. eigenvalues --   -0.94743  -0.86635  -0.80927  -0.76734  -0.74708
 Alpha  occ. eigenvalues --   -0.70204  -0.66981  -0.65557  -0.61576  -0.61572
 Alpha  occ. eigenvalues --   -0.61377  -0.56839  -0.56735  -0.56289  -0.55848
 Alpha  occ. eigenvalues --   -0.53187  -0.50925  -0.49860  -0.49410  -0.49381
 Alpha  occ. eigenvalues --   -0.49041  -0.47882  -0.47203  -0.46975  -0.46406
 Alpha  occ. eigenvalues --   -0.45434  -0.45351  -0.45253  -0.44514  -0.43487
 Alpha  occ. eigenvalues --   -0.42198  -0.40718  -0.37244  -0.36848  -0.34882
 Alpha  occ. eigenvalues --   -0.34698  -0.31812  -0.31784  -0.30931  -0.30808
 Alpha  occ. eigenvalues --   -0.27979  -0.27828
 Alpha virt. eigenvalues --   -0.12640  -0.11097  -0.05654  -0.01602  -0.01117
 Alpha virt. eigenvalues --    0.00211   0.00373   0.01611   0.01824   0.02297
 Alpha virt. eigenvalues --    0.02391   0.03001   0.03915   0.04319   0.04993
 Alpha virt. eigenvalues --    0.05171   0.05960   0.06134   0.06257   0.06587
 Alpha virt. eigenvalues --    0.07421   0.07587   0.08084   0.08442   0.08635
 Alpha virt. eigenvalues --    0.08792   0.09039   0.09346   0.09690   0.10067
 Alpha virt. eigenvalues --    0.10229   0.10356   0.10607   0.10846   0.11252
 Alpha virt. eigenvalues --    0.11739   0.11796   0.12249   0.12727   0.13106
 Alpha virt. eigenvalues --    0.13293   0.13983   0.14105   0.14435   0.15120
 Alpha virt. eigenvalues --    0.15819   0.16137   0.16296   0.17181   0.17593
 Alpha virt. eigenvalues --    0.17889   0.18348   0.18668   0.18975   0.19627
 Alpha virt. eigenvalues --    0.19983   0.20244   0.20671   0.20894   0.21246
 Alpha virt. eigenvalues --    0.21578   0.21856   0.22027   0.22207   0.22809
 Alpha virt. eigenvalues --    0.23300   0.23648   0.24124   0.24478   0.24751
 Alpha virt. eigenvalues --    0.25087   0.25638   0.25939   0.26077   0.26233
 Alpha virt. eigenvalues --    0.26436   0.26658   0.27198   0.27322   0.27907
 Alpha virt. eigenvalues --    0.27962   0.28514   0.28868   0.29089   0.29408
 Alpha virt. eigenvalues --    0.29908   0.30213   0.30573   0.31137   0.31482
 Alpha virt. eigenvalues --    0.31785   0.32395   0.32769   0.33063   0.33392
 Alpha virt. eigenvalues --    0.33977   0.34366   0.34474   0.35030   0.35856
 Alpha virt. eigenvalues --    0.36077   0.36234   0.36983   0.37482   0.37809
 Alpha virt. eigenvalues --    0.38758   0.38854   0.39566   0.39966   0.41116
 Alpha virt. eigenvalues --    0.41793   0.42106   0.42696   0.43561   0.44446
 Alpha virt. eigenvalues --    0.44967   0.45234   0.45596   0.46467   0.46797
 Alpha virt. eigenvalues --    0.47700   0.47840   0.48736   0.49773   0.50553
 Alpha virt. eigenvalues --    0.51142   0.51430   0.52044   0.52539   0.53075
 Alpha virt. eigenvalues --    0.53704   0.54284   0.55072   0.55345   0.56323
 Alpha virt. eigenvalues --    0.56491   0.56893   0.57284   0.57930   0.58315
 Alpha virt. eigenvalues --    0.59473   0.59784   0.60263   0.61232   0.61624
 Alpha virt. eigenvalues --    0.62106   0.62615   0.63216   0.64134   0.64806
 Alpha virt. eigenvalues --    0.65448   0.65816   0.66335   0.67334   0.67540
 Alpha virt. eigenvalues --    0.67774   0.68330   0.69135   0.70170   0.70414
 Alpha virt. eigenvalues --    0.70871   0.71378   0.72068   0.72338   0.72793
 Alpha virt. eigenvalues --    0.73037   0.73700   0.74906   0.75627   0.75788
 Alpha virt. eigenvalues --    0.76457   0.76955   0.78492   0.78590   0.79675
 Alpha virt. eigenvalues --    0.80220   0.80885   0.82433   0.82653   0.83410
 Alpha virt. eigenvalues --    0.84457   0.84888   0.85378   0.86052   0.86449
 Alpha virt. eigenvalues --    0.86824   0.87406   0.88484   0.89382   0.90152
 Alpha virt. eigenvalues --    0.90206   0.91774   0.93250   0.93782   0.95514
 Alpha virt. eigenvalues --    0.95844   0.96427   0.96585   0.97678   0.97864
 Alpha virt. eigenvalues --    0.99773   1.00425   1.00907   1.01825   1.02796
 Alpha virt. eigenvalues --    1.04326   1.05667   1.06701   1.08034   1.08643
 Alpha virt. eigenvalues --    1.09304   1.11549   1.12048   1.12733   1.13927
 Alpha virt. eigenvalues --    1.14354   1.14866   1.15216   1.17254   1.17998
 Alpha virt. eigenvalues --    1.19531   1.19754   1.20470   1.21280   1.21727
 Alpha virt. eigenvalues --    1.23277   1.24206   1.25449   1.25988   1.27258
 Alpha virt. eigenvalues --    1.27926   1.28511   1.28777   1.29364   1.30025
 Alpha virt. eigenvalues --    1.30454   1.31119   1.31432   1.32498   1.33763
 Alpha virt. eigenvalues --    1.34166   1.34319   1.35068   1.35568   1.36674
 Alpha virt. eigenvalues --    1.38230   1.38330   1.39934   1.40252   1.40823
 Alpha virt. eigenvalues --    1.41855   1.42718   1.43331   1.44152   1.44647
 Alpha virt. eigenvalues --    1.45531   1.45720   1.46192   1.46852   1.47206
 Alpha virt. eigenvalues --    1.49532   1.50334   1.50839   1.51388   1.51539
 Alpha virt. eigenvalues --    1.52231   1.53410   1.53969   1.54314   1.57548
 Alpha virt. eigenvalues --    1.59368   1.59588   1.60713   1.61596   1.62315
 Alpha virt. eigenvalues --    1.63195   1.64034   1.64796   1.66137   1.67053
 Alpha virt. eigenvalues --    1.67424   1.67756   1.68665   1.68779   1.69748
 Alpha virt. eigenvalues --    1.70375   1.70972   1.73135   1.73784   1.74134
 Alpha virt. eigenvalues --    1.74466   1.76917   1.77795   1.79173   1.79619
 Alpha virt. eigenvalues --    1.81234   1.82451   1.83834   1.84150   1.88014
 Alpha virt. eigenvalues --    1.88400   1.89481   1.90582   1.91480   1.93723
 Alpha virt. eigenvalues --    1.94419   1.95236   1.96072   1.96978   1.98468
 Alpha virt. eigenvalues --    1.99212   2.00942   2.01995   2.03209   2.03950
 Alpha virt. eigenvalues --    2.04706   2.04884   2.07060   2.07384   2.07554
 Alpha virt. eigenvalues --    2.08465   2.09374   2.11797   2.12470   2.13810
 Alpha virt. eigenvalues --    2.14010   2.16601   2.17711   2.19338   2.20474
 Alpha virt. eigenvalues --    2.22856   2.25790   2.27837   2.30168   2.30421
 Alpha virt. eigenvalues --    2.32175   2.35365   2.35985   2.36771   2.38288
 Alpha virt. eigenvalues --    2.38852   2.40011   2.40245   2.40769   2.44157
 Alpha virt. eigenvalues --    2.50610   2.53057   2.55095   2.58000   2.59641
 Alpha virt. eigenvalues --    2.64100   2.69340   2.72530   2.75326   2.77277
 Alpha virt. eigenvalues --    2.83907   2.84635   2.87169   2.87845   2.91284
 Alpha virt. eigenvalues --    2.94562   2.95974   3.04275   3.09089   3.17442
 Alpha virt. eigenvalues --    3.18867   3.21362   3.24811   3.30518   3.31065
 Alpha virt. eigenvalues --    3.31996   3.33219   3.34387   3.35576   3.36392
 Alpha virt. eigenvalues --    3.36994   3.37255   3.38377   3.39828   3.42058
 Alpha virt. eigenvalues --    3.43288   3.45565   3.47264   3.47600   3.49654
 Alpha virt. eigenvalues --    3.50516   3.51910   3.54236   3.54904   3.56838
 Alpha virt. eigenvalues --    3.62476   3.73268   3.78857   4.45671   4.47631
 Alpha virt. eigenvalues --    4.48710   4.50143   4.50491   4.51796   4.55947
 Alpha virt. eigenvalues --    4.57383   4.57585   4.62279   4.63372   4.63869
 Alpha virt. eigenvalues --    4.65785   4.72511   4.80567   4.81156
          Condensed to atoms (all electrons):
              1          2          3          4          5          6
     1  C   22.789132 -10.312979   7.564276  -9.304866   6.418142  -8.887393
     2  C  -10.312979  25.751681 -14.206008   7.671369  -9.774957   6.455161
     3  C    7.564276 -14.206008  30.927224 -17.405650  10.205028  -9.830122
     4  C   -9.304866   7.671369 -17.405650  26.612165 -12.323273   8.935073
     5  C    6.418142  -9.774957  10.205028 -12.323273  26.090285 -11.914313
     6  C   -8.887393   6.455161  -9.830122   8.935073 -11.914313  19.038565
     7  H   -3.024984   0.986539  -0.785076   0.123776   0.107696   1.171668
     8  H    0.514007  -3.504362   2.164312   0.045953   0.067911  -0.681270
     9  H    0.413786  -0.246804   2.842646  -3.540644   1.250955  -1.193455
    10  H   -0.161565   0.424163  -1.040635   1.180156  -3.498199   2.230716
    11  N   -1.321570   1.114369  -2.077718   2.063012  -1.235802   0.977671
    12  N   -0.309182   0.272599  -2.726852   0.845651  -0.311987   0.291155
    13  S   -0.058048  -0.014589  -0.102675   0.061060  -0.017784   0.008592
    14  C    0.016010  -0.057682   0.019726  -0.000765   0.001977  -0.006325
    15  O   -0.014817   0.096136  -0.037247   0.019100  -0.016570   0.017582
    16  O   -0.001512   0.020065   0.000381  -0.001627   0.000333   0.000081
    17  O   -0.067097  -0.029350   0.029227   0.012831   0.001540  -0.013774
    18  F    0.003349   0.002912   0.006954  -0.005946   0.000754  -0.001240
    19  F    0.000339   0.005171  -0.001041  -0.000438   0.000066   0.000026
    20  F    0.002699   0.001778  -0.001676  -0.000424   0.000052   0.000531
    21  O    0.978927  -0.337564   0.361707  -0.384560   0.396251  -1.262779
    22  C   -0.058610   0.201467  -0.169399   0.196141  -0.415326   0.089244
    23  H   -0.188899  -0.058379   0.026316  -0.007793   0.010106   0.372996
    24  H    0.018144   0.091502  -0.041789   0.029935  -0.044771  -0.077955
    25  H    0.060506   0.033936  -0.032142   0.027594  -0.026831  -0.076689
              7          8          9         10         11         12
     1  C   -3.024984   0.514007   0.413786  -0.161565  -1.321570  -0.309182
     2  C    0.986539  -3.504362  -0.246804   0.424163   1.114369   0.272599
     3  C   -0.785076   2.164312   2.842646  -1.040635  -2.077718  -2.726852
     4  C    0.123776   0.045953  -3.540644   1.180156   2.063012   0.845651
     5  C    0.107696   0.067911   1.250955  -3.498199  -1.235802  -0.311987
     6  C    1.171668  -0.681270  -1.193455   2.230716   0.977671   0.291155
     7  H    4.386440  -0.397532   0.025130  -0.065952   0.009604  -0.010251
     8  H   -0.397532   3.846715  -0.036382   0.030960  -0.246916   0.009098
     9  H    0.025130  -0.036382   2.971216  -0.229316  -0.395051  -0.035341
    10  H   -0.065952   0.030960  -0.229316   3.095413   0.038402   0.004239
    11  N    0.009604  -0.246916  -0.395051   0.038402   8.352973  -0.846600
    12  N   -0.010251   0.009098  -0.035341   0.004239  -0.846600  10.590541
    13  S   -0.001585  -0.019692   0.000560  -0.000504   0.017311   0.028479
    14  C   -0.006931   0.010018  -0.000190   0.000045  -0.001262  -0.005267
    15  O    0.001338   0.006581   0.000404  -0.000325  -0.037073  -0.020953
    16  O    0.000613   0.002772  -0.000018   0.000008   0.000351  -0.000928
    17  O    0.004675   0.054536  -0.000358   0.000021   0.013891  -0.001259
    18  F    0.003953   0.001849  -0.000125  -0.000005  -0.001913  -0.000231
    19  F    0.000555  -0.000303  -0.000008   0.000004  -0.000085   0.000122
    20  F    0.000507  -0.000803  -0.000007   0.000002  -0.000013   0.000100
    21  O   -0.198472   0.005038  -0.001997  -0.169842  -0.028624  -0.003848
    22  C   -0.010440   0.012553  -0.003617   0.044572   0.018578   0.003014
    23  H    0.050660  -0.003243   0.001113  -0.015315  -0.000597  -0.000044
    24  H   -0.092697   0.006678  -0.001906   0.013019   0.003272   0.000603
    25  H   -0.088216   0.003992  -0.001773   0.012008   0.003043   0.000632
             13         14         15         16         17         18
     1  C   -0.058048   0.016010  -0.014817  -0.001512  -0.067097   0.003349
     2  C   -0.014589  -0.057682   0.096136   0.020065  -0.029350   0.002912
     3  C   -0.102675   0.019726  -0.037247   0.000381   0.029227   0.006954
     4  C    0.061060  -0.000765   0.019100  -0.001627   0.012831  -0.005946
     5  C   -0.017784   0.001977  -0.016570   0.000333   0.001540   0.000754
     6  C    0.008592  -0.006325   0.017582   0.000081  -0.013774  -0.001240
     7  H   -0.001585  -0.006931   0.001338   0.000613   0.004675   0.003953
     8  H   -0.019692   0.010018   0.006581   0.002772   0.054536   0.001849
     9  H    0.000560  -0.000190   0.000404  -0.000018  -0.000358  -0.000125
    10  H   -0.000504   0.000045  -0.000325   0.000008   0.000021  -0.000005
    11  N    0.017311  -0.001262  -0.037073   0.000351   0.013891  -0.001913
    12  N    0.028479  -0.005267  -0.020953  -0.000928  -0.001259  -0.000231
    13  S   14.458157   0.279704  -0.299843  -0.195554  -0.255916  -0.066849
    14  C    0.279704   4.910553  -0.058362  -0.060622  -0.043356  -0.009497
    15  O   -0.299843  -0.058362   9.173571   0.045633   0.058067   0.018091
    16  O   -0.195554  -0.060622   0.045633   9.068551   0.048507   0.016218
    17  O   -0.255916  -0.043356   0.058067   0.048507   9.133324   0.016576
    18  F   -0.066849  -0.009497   0.018091   0.016218   0.016576   9.555694
    19  F   -0.052093   0.017746   0.009559   0.015356   0.014112  -0.042689
    20  F   -0.068868  -0.000506   0.020121   0.020392   0.019692  -0.041957
    21  O    0.000210   0.000087  -0.000061  -0.000002   0.000195  -0.000030
    22  C    0.001262  -0.000006  -0.000322  -0.000036  -0.000967  -0.000020
    23  H    0.000067  -0.000032  -0.000033  -0.000001  -0.000071   0.000018
    24  H    0.000319   0.000136   0.000139  -0.000015   0.000115  -0.000125
    25  H    0.000130   0.000205  -0.000054  -0.000015  -0.000118  -0.000055
             19         20         21         22         23         24
     1  C    0.000339   0.002699   0.978927  -0.058610  -0.188899   0.018144
     2  C    0.005171   0.001778  -0.337564   0.201467  -0.058379   0.091502
     3  C   -0.001041  -0.001676   0.361707  -0.169399   0.026316  -0.041789
     4  C   -0.000438  -0.000424  -0.384560   0.196141  -0.007793   0.029935
     5  C    0.000066   0.000052   0.396251  -0.415326   0.010106  -0.044771
     6  C    0.000026   0.000531  -1.262779   0.089244   0.372996  -0.077955
     7  H    0.000555   0.000507  -0.198472  -0.010440   0.050660  -0.092697
     8  H   -0.000303  -0.000803   0.005038   0.012553  -0.003243   0.006678
     9  H   -0.000008  -0.000007  -0.001997  -0.003617   0.001113  -0.001906
    10  H    0.000004   0.000002  -0.169842   0.044572  -0.015315   0.013019
    11  N   -0.000085  -0.000013  -0.028624   0.018578  -0.000597   0.003272
    12  N    0.000122   0.000100  -0.003848   0.003014  -0.000044   0.000603
    13  S   -0.052093  -0.068868   0.000210   0.001262   0.000067   0.000319
    14  C    0.017746  -0.000506   0.000087  -0.000006  -0.000032   0.000136
    15  O    0.009559   0.020121  -0.000061  -0.000322  -0.000033   0.000139
    16  O    0.015356   0.020392  -0.000002  -0.000036  -0.000001  -0.000015
    17  O    0.014112   0.019692   0.000195  -0.000967  -0.000071   0.000115
    18  F   -0.042689  -0.041957  -0.000030  -0.000020   0.000018  -0.000125
    19  F    9.519895  -0.053220   0.000000   0.000004   0.000002  -0.000015
    20  F   -0.053220   9.523034  -0.000001  -0.000028  -0.000002  -0.000013
    21  O    0.000000  -0.000001   9.339929   0.133901  -0.424715   0.115013
    22  C    0.000004  -0.000028   0.133901   4.008822   0.171081   0.263157
    23  H    0.000002  -0.000002  -0.424715   0.171081   2.698379  -0.555772
    24  H   -0.000015  -0.000013   0.115013   0.263157  -0.555772   1.579229
    25  H    0.000001   0.000027   0.107381   0.262267  -0.548855  -0.138094
             25
     1  C    0.060506
     2  C    0.033936
     3  C   -0.032142
     4  C    0.027594
     5  C   -0.026831
     6  C   -0.076689
     7  H   -0.088216
     8  H    0.003992
     9  H   -0.001773
    10  H    0.012008
    11  N    0.003043
    12  N    0.000632
    13  S    0.000130
    14  C    0.000205
    15  O   -0.000054
    16  O   -0.000015
    17  O   -0.000118
    18  F   -0.000055
    19  F    0.000001
    20  F    0.000027
    21  O    0.107381
    22  C    0.262267
    23  H   -0.548855
    24  H   -0.138094
    25  H    1.566825
 Mulliken atomic charges:
              1
     1  C    0.932203
     2  C    1.413826
     3  C    0.310234
     4  C    1.152171
     5  C    1.028719
     6  C    0.356254
     7  H   -1.191020
     8  H   -0.892469
     9  H   -0.818819
    10  H   -0.892070
    11  N    0.580749
    12  N   -0.773490
    13  S    2.298150
    14  C    0.994597
    15  O   -0.980662
    16  O   -0.978931
    17  O   -0.995043
    18  F   -0.455684
    19  F   -0.433064
    20  F   -0.421416
    21  O   -0.626143
    22  C    1.252709
    23  H   -0.526987
    24  H   -0.168110
    25  H   -0.165704
 Sum of Mulliken atomic charges =   0.00000
 Mulliken charges with hydrogens summed into heavy atoms:
              1
     1  C   -0.258816
     2  C    0.521356
     3  C    0.310234
     4  C    0.333352
     5  C    0.136649
     6  C    0.356254
    11  N    0.580749
    12  N   -0.773490
    13  S    2.298150
    14  C    0.994597
    15  O   -0.980662
    16  O   -0.978931
    17  O   -0.995043
    18  F   -0.455684
    19  F   -0.433064
    20  F   -0.421416
    21  O   -0.626143
    22  C    0.391908
 Sum of Mulliken charges with hydrogens summed into heavy atoms =   0.00000
 Electronic spatial extent (au):  <R**2>=           6515.5608
 Charge=              0.0000 electrons
 Dipole moment (field-independent basis, Debye):
    X=             21.1516    Y=              1.8684    Z=              2.6952  Tot=             21.4043
 Quadrupole moment (field-independent basis, Debye-Ang):
   XX=           -115.6226   YY=            -86.1254   ZZ=           -115.0753
   XY=              3.1247   XZ=             -8.2552   YZ=              6.0912
 Traceless Quadrupole moment (field-independent basis, Debye-Ang):
   XX=            -10.0148   YY=             19.4823   ZZ=             -9.4675
   XY=              3.1247   XZ=             -8.2552   YZ=              6.0912
 Octapole moment (field-independent basis, Debye-Ang**2):
  XXX=            255.2578  YYY=             11.6903  ZZZ=             23.8697  XYY=             82.0844
  XXY=            -44.8819  XXZ=             34.1515  XZZ=             24.0356  YZZ=             -1.4661
  YYZ=              8.8756  XYZ=             23.4780
 Hexadecapole moment (field-independent basis, Debye-Ang**3):
 XXXX=          -5940.8125 YYYY=          -1523.0929 ZZZZ=           -477.7047 XXXY=           -176.2294
 XXXZ=           -160.2286 YYYX=           -135.1332 YYYZ=             -7.9623 ZZZX=            -71.2114
 ZZZY=            -45.4614 XXYY=          -1051.8176 XXZZ=          -1091.4339 YYZZ=           -345.6911
 XXYZ=             91.8385 YYXZ=            -10.2265 ZZXY=            -35.3382
 N-N= 1.496297882270D+03 E-N=-6.332949520664D+03  KE= 1.409843798876D+03
 No NMR shielding tensors so no spin-rotation constants.
 Leave Link  601 at Wed Nov 23 00:16:27 2016, MaxMem=  524288000 cpu:       2.8
 (Enter /home/ubuntu/g09/l9999.exe)


 MISERY NO LONGER LOVES COMPANY.  NOWADAYS IT INSISTS ON IT.

                                              -- BAKER'S LAW
 Error termination request processed by link 9999.
 Error termination via Lnk1e in /home/ubuntu/g09/l9999.exe at Wed Nov 23 00:16:27 2016.
 Job cpu time: 18 days  8 hours 49 minutes 20.9 seconds.
 File lengths (MBytes):  RWF=    151 Int=      0 D2E=      0 Chk=     17 Scr=      1
