 Entering Gaussian System, Link 0=/home/ubuntu/g09/g09
 Input=m-NO2-Ph-Ph-m-NO2-RB3LYP-aug-cc-pVDZ-T75.gjf
 Output=m-NO2-Ph-Ph-m-NO2-RB3LYP-aug-cc-pVDZ-T75.log
 Initial command:
 /home/ubuntu/g09/l1.exe /home/ubuntu/g09/Gau-11942.inp -scrdir=/home/ubuntu/g09/
 Entering Link 1 = /home/ubuntu/g09/l1.exe PID=     11944.
  
 Copyright (c) 1988,1990,1992,1993,1995,1998,2003,2009,2010,
            Gaussian, Inc.  All Rights Reserved.
  
 This is part of the Gaussian(R) 09 program.  It is based on
 the Gaussian(R) 03 system (copyright 2003, Gaussian, Inc.),
 the Gaussian(R) 98 system (copyright 1998, Gaussian, Inc.),
 the Gaussian(R) 94 system (copyright 1995, Gaussian, Inc.),
 the Gaussian 92(TM) system (copyright 1992, Gaussian, Inc.),
 the Gaussian 90(TM) system (copyright 1990, Gaussian, Inc.),
 the Gaussian 88(TM) system (copyright 1988, Gaussian, Inc.),
 the Gaussian 86(TM) system (copyright 1986, Carnegie Mellon
 University), and the Gaussian 82(TM) system (copyright 1983,
 Carnegie Mellon University). Gaussian is a federally registered
 trademark of Gaussian, Inc.
  
 This software contains proprietary and confidential information,
 including trade secrets, belonging to Gaussian, Inc.
  
 This software is provided under written license and may be
 used, copied, transmitted, or stored only in accord with that
 written license.
  
 The following legend is applicable only to US Government
 contracts under FAR:
  
                    RESTRICTED RIGHTS LEGEND
  
 Use, reproduction and disclosure by the US Government is
 subject to restrictions as set forth in subparagraphs (a)
 and (c) of the Commercial Computer Software - Restricted
 Rights clause in FAR 52.227-19.
  
 Gaussian, Inc.
 340 Quinnipiac St., Bldg. 40, Wallingford CT 06492
  
  
 ---------------------------------------------------------------
 Warning -- This program may not be used in any manner that
 competes with the business of Gaussian, Inc. or will provide
 assistance to any competitor of Gaussian, Inc.  The licensee
 of this program is prohibited from giving any competitor of
 Gaussian, Inc. access to this program.  By using this program,
 the user acknowledges that Gaussian, Inc. is engaged in the
 business of creating and licensing software in the field of
 computational chemistry and represents and warrants to the
 licensee that it is not a competitor of Gaussian, Inc. and that
 it will not use this program in any manner prohibited above.
 ---------------------------------------------------------------
  

 Cite this work as:
 Gaussian 09, Revision B.01,
 M. J. Frisch, G. W. Trucks, H. B. Schlegel, G. E. Scuseria, 
 M. A. Robb, J. R. Cheeseman, G. Scalmani, V. Barone, B. Mennucci, 
 G. A. Petersson, H. Nakatsuji, M. Caricato, X. Li, H. P. Hratchian, 
 A. F. Izmaylov, J. Bloino, G. Zheng, J. L. Sonnenberg, M. Hada, 
 M. Ehara, K. Toyota, R. Fukuda, J. Hasegawa, M. Ishida, T. Nakajima, 
 Y. Honda, O. Kitao, H. Nakai, T. Vreven, J. A. Montgomery, Jr., 
 J. E. Peralta, F. Ogliaro, M. Bearpark, J. J. Heyd, E. Brothers, 
 K. N. Kudin, V. N. Staroverov, T. Keith, R. Kobayashi, J. Normand, 
 K. Raghavachari, A. Rendell, J. C. Burant, S. S. Iyengar, J. Tomasi, 
 M. Cossi, N. Rega, J. M. Millam, M. Klene, J. E. Knox, J. B. Cross, 
 V. Bakken, C. Adamo, J. Jaramillo, R. Gomperts, R. E. Stratmann, 
 O. Yazyev, A. J. Austin, R. Cammi, C. Pomelli, J. W. Ochterski, 
 R. L. Martin, K. Morokuma, V. G. Zakrzewski, G. A. Voth, 
 P. Salvador, J. J. Dannenberg, S. Dapprich, A. D. Daniels, 
 O. Farkas, J. B. Foresman, J. V. Ortiz, J. Cioslowski, 
 and D. J. Fox, Gaussian, Inc., Wallingford CT, 2010.
 
 ******************************************
 Gaussian 09:  EM64L-G09RevB.01 12-Aug-2010
                30-Apr-2005 
 ******************************************
 %mem=500MW
 %nproc=7
 Will use up to    7 processors via shared memory.
 ----------------------------------------------------------------------
 #p Temperature=348.15 int=(grid=ultrafine) CPHF=(grid=fine) freq rb3ly
 p/aug-cc-pvdz
 ----------------------------------------------------------------------
 1/10=4,30=1,38=1,112=348150/1,3;
 2/12=2,17=6,18=5,40=1/2;
 3/5=16,7=10,11=2,16=1,25=1,30=1,71=2,74=-5,75=-5,116=1/1,2,3;
 4//1;
 5/5=2,38=5,96=4,98=1/2;
 8/6=4,10=90,11=11/1;
 11/6=1,8=1,9=11,15=111,16=1/1,2,10;
 10/6=1,60=4/2;
 6/7=2,8=2,9=2,10=2,18=1,28=1/1;
 7/8=1,10=1,25=1/1,2,3,16;
 1/10=4,30=1/3;
 99//99;
 Leave Link    1 at Sat Apr 30 05:47:22 2005, MaxMem=  524288000 cpu:       0.3
 (Enter /home/ubuntu/g09/l101.exe)
 --------------------------------------
 m-NO2-Ph-Ph-m-NO2-RB3LYP-aug-cc-pVDZ--
 --------------------------------------
 Symbolic Z-matrix:
 Charge =  0 Multiplicity = 1
 C                    -3.05793   0.17721  -0.05789 
 C                    -1.80343  -0.42934  -0.06804 
 C                    -0.67505   0.31178   0.31479 
 C                    -0.8551    1.65444   0.69787 
 C                    -2.12203   2.24266   0.69946 
 C                    -3.24543   1.50692   0.31906 
 H                    -1.72247  -1.46175  -0.39732 
 H                     0.0038    2.24226   1.02022 
 H                    -2.2365    3.28157   1.00712 
 H                    -4.24276   1.93835   0.31124 
 C                     0.67512  -0.31176   0.31464 
 C                     0.85527  -1.65441   0.69774 
 C                     1.80342   0.42934  -0.0685 
 C                     2.1222   -2.24262   0.69904 
 H                    -0.00356  -2.24221   1.02032 
 C                     3.05791  -0.17721  -0.05861 
 H                     1.72238   1.46173  -0.3978 
 C                     3.24551  -1.5069    0.31834 
 H                     2.23674  -3.28153   1.00673 
 H                     4.24284  -1.93834   0.31031 
 N                    -4.23264  -0.62162  -0.4705 
 O                    -4.04465  -1.79338  -0.78844 
 O                    -5.32795  -0.06688  -0.46875 
 N                     4.23252   0.6216   -0.47155 
 O                     4.04446   1.79334  -0.78949 
 O                     5.32784   0.06685  -0.47004 
 
 NAtoms=     26 NQM=     26 NQMF=      0 NMic=      0 NMicF=      0 NTot=     26.
                    Isotopes and Nuclear Properties:
 (Nuclear quadrupole moments (NQMom) in fm**2, nuclear magnetic moments (NMagM)
  in nuclear magnetons)

  Atom         1           2           3           4           5           6           7           8           9          10
 IAtWgt=          12          12          12          12          12          12           1           1           1           1
 AtmWgt=  12.0000000  12.0000000  12.0000000  12.0000000  12.0000000  12.0000000   1.0078250   1.0078250   1.0078250   1.0078250
 NucSpn=           0           0           0           0           0           0           1           1           1           1
 AtZEff=   0.0000000   0.0000000   0.0000000   0.0000000   0.0000000   0.0000000   0.0000000   0.0000000   0.0000000   0.0000000
 NQMom=    0.0000000   0.0000000   0.0000000   0.0000000   0.0000000   0.0000000   0.0000000   0.0000000   0.0000000   0.0000000
 NMagM=    0.0000000   0.0000000   0.0000000   0.0000000   0.0000000   0.0000000   2.7928460   2.7928460   2.7928460   2.7928460

  Atom        11          12          13          14          15          16          17          18          19          20
 IAtWgt=          12          12          12          12           1          12           1          12           1           1
 AtmWgt=  12.0000000  12.0000000  12.0000000  12.0000000   1.0078250  12.0000000   1.0078250  12.0000000   1.0078250   1.0078250
 NucSpn=           0           0           0           0           1           0           1           0           1           1
 AtZEff=   0.0000000   0.0000000   0.0000000   0.0000000   0.0000000   0.0000000   0.0000000   0.0000000   0.0000000   0.0000000
 NQMom=    0.0000000   0.0000000   0.0000000   0.0000000   0.0000000   0.0000000   0.0000000   0.0000000   0.0000000   0.0000000
 NMagM=    0.0000000   0.0000000   0.0000000   0.0000000   2.7928460   0.0000000   2.7928460   0.0000000   2.7928460   2.7928460

  Atom        21          22          23          24          25          26
 IAtWgt=          14          16          16          14          16          16
 AtmWgt=  14.0030740  15.9949146  15.9949146  14.0030740  15.9949146  15.9949146
 NucSpn=           2           0           0           2           0           0
 AtZEff=   0.0000000   0.0000000   0.0000000   0.0000000   0.0000000   0.0000000
 NQMom=    2.0440000   0.0000000   0.0000000   2.0440000   0.0000000   0.0000000
 NMagM=    0.4037610   0.0000000   0.0000000   0.4037610   0.0000000   0.0000000
 Leave Link  101 at Sat Apr 30 05:47:22 2005, MaxMem=  524288000 cpu:       0.2
 (Enter /home/ubuntu/g09/l103.exe)

 GradGradGradGradGradGradGradGradGradGradGradGradGradGradGradGradGradGrad
 Berny optimization.
 Initialization pass.
 Trust Radius=3.00D-01 FncErr=1.00D-07 GrdErr=1.00D-07
 Number of steps in this run=      2 maximum allowed number of steps=      2.
 GradGradGradGradGradGradGradGradGradGradGradGradGradGradGradGradGradGrad

 Leave Link  103 at Sat Apr 30 05:47:22 2005, MaxMem=  524288000 cpu:       0.1
 (Enter /home/ubuntu/g09/l202.exe)
                          Input orientation:                          
 ---------------------------------------------------------------------
 Center     Atomic      Atomic             Coordinates (Angstroms)
 Number     Number       Type             X           Y           Z
 ---------------------------------------------------------------------
      1          6           0       -3.057930    0.177210   -0.057890
      2          6           0       -1.803430   -0.429340   -0.068040
      3          6           0       -0.675050    0.311780    0.314790
      4          6           0       -0.855100    1.654440    0.697870
      5          6           0       -2.122030    2.242660    0.699460
      6          6           0       -3.245430    1.506920    0.319060
      7          1           0       -1.722470   -1.461750   -0.397320
      8          1           0        0.003800    2.242260    1.020220
      9          1           0       -2.236500    3.281570    1.007120
     10          1           0       -4.242760    1.938350    0.311240
     11          6           0        0.675120   -0.311760    0.314640
     12          6           0        0.855270   -1.654410    0.697740
     13          6           0        1.803420    0.429340   -0.068500
     14          6           0        2.122200   -2.242620    0.699040
     15          1           0       -0.003560   -2.242210    1.020320
     16          6           0        3.057910   -0.177210   -0.058610
     17          1           0        1.722380    1.461730   -0.397800
     18          6           0        3.245510   -1.506900    0.318340
     19          1           0        2.236740   -3.281530    1.006730
     20          1           0        4.242840   -1.938340    0.310310
     21          7           0       -4.232640   -0.621620   -0.470500
     22          8           0       -4.044650   -1.793380   -0.788440
     23          8           0       -5.327950   -0.066880   -0.468750
     24          7           0        4.232520    0.621600   -0.471550
     25          8           0        4.044460    1.793340   -0.789490
     26          8           0        5.327840    0.066850   -0.470040
 ---------------------------------------------------------------------
                    Distance matrix (angstroms):
                    1          2          3          4          5
     1  C    0.000000
     2  C    1.393476   0.000000
     3  C    2.415599   1.403232   0.000000
     4  C    2.757869   2.414143   1.407801   0.000000
     5  C    2.390726   2.798240   2.443362   1.396824   0.000000
     6  C    1.394767   2.445059   2.834648   2.424652   1.395724
     7  H    2.141228   1.086669   2.179357   3.415027   3.883971
     8  H    3.847199   3.404091   2.164537   1.089565   2.149893
     9  H    3.383200   3.887721   3.425945   2.156723   1.089538
    10  H    2.154459   3.420547   3.921007   3.421451   2.177341
    11  C    3.783323   2.510673   1.487199   2.520790   3.807518
    12  C    4.386222   3.025872   2.520800   3.724762   4.904230
    13  C    4.867895   3.707654   2.510686   3.025875   4.391702
    14  C    5.767345   4.391693   3.807521   4.904222   6.175049
    15  H    4.042933   2.776789   2.733411   4.001622   4.970405
    16  C    6.126101   4.867883   3.783323   4.386211   5.767341
    17  H    4.961542   4.014502   2.752788   2.807318   4.073490
    18  C    6.535375   5.177086   4.321851   5.191639   6.558577
    19  H    6.413254   5.060938   4.676449   5.832553   7.043434
    20  H    7.610017   6.243205   5.408207   6.248781   7.625206
    21  N    1.479297   2.469819   3.760899   4.237135   3.745341
    22  O    2.321755   2.720781   4.123472   4.926440   4.711680
    23  O    2.319779   3.565696   4.733582   4.932579   4.120269
    24  N    7.315686   6.140032   4.979815   5.321483   6.661787
    25  O    7.320591   6.297509   5.068356   5.122228   6.359596
    26  O    8.396618   7.159806   6.058930   6.489469   7.848722
                    6          7          8          9         10
     6  C    0.000000
     7  H    3.412566   0.000000
     8  H    3.404386   4.325404   0.000000
     9  H    2.154240   4.973506   2.469672   0.000000
    10  H    1.086674   4.291223   4.316050   2.512681   0.000000
    11  C    4.321843   2.752781   2.733410   4.676439   5.408193
    12  C    5.191642   2.807315   4.001629   5.832551   6.248777
    13  C    5.177091   4.014504   2.776801   5.060941   6.243205
    14  C    6.558574   4.073481   4.970405   7.043426   7.625196
    15  H    5.005743   2.360820   4.484476   5.958048   5.995890
    16  C    6.535367   4.961532   4.042932   6.413245   7.610004
    17  H    5.019469   4.518155   2.360831   4.578029   6.026010
    18  C    7.156495   5.019465   5.005749   7.311381   8.242814
    19  H    7.311384   4.578024   5.958058   7.942554   8.349537
    20  H    8.242820   6.026010   5.995903   8.349542   9.329209
    21  N    2.475615   2.648042   5.326488   4.626319   2.676689
    22  O    3.571735   2.378124   5.995631   5.678782   3.895427
    23  O    2.726606   3.866555   5.998059   4.790342   2.409765
    24  N    7.571565   6.309339   4.768017   7.149135   8.612605
    25  O    7.379256   6.633769   4.450114   6.700231   8.361259
    26  O    8.729114   7.214484   5.941270   8.350788   9.783113
                   11         12         13         14         15
    11  C    0.000000
    12  C    1.407810   0.000000
    13  C    1.403241   2.414151   0.000000
    14  C    2.443363   1.396819   2.798233   0.000000
    15  H    2.164539   1.089567   3.404098   2.149902   0.000000
    16  C    2.415597   2.757863   1.393465   2.390712   3.847196
    17  H    2.179356   3.415028   1.086662   3.883957   4.325402
    18  C    2.834657   2.424655   2.445055   1.395723   3.404396
    19  H    3.425957   2.156723   3.887730   1.089553   2.469679
    20  H    3.921021   3.421454   3.420552   2.177340   4.316059
    21  N    4.979816   5.321491   6.140044   6.661791   4.768016
    22  O    5.068354   5.122232   6.297517   6.359595   4.450109
    23  O    6.058920   6.489465   7.159810   7.848714   5.941256
    24  N    3.760898   4.237131   2.469806   3.745329   5.326486
    25  O    4.123470   4.926435   2.720769   4.711664   5.995627
    26  O    4.733590   4.932578   3.565693   4.120258   5.998063
                   16         17         18         19         20
    16  C    0.000000
    17  H    2.141218   0.000000
    18  C    1.394762   3.412557   0.000000
    19  H    3.383204   4.973508   2.154254   0.000000
    20  H    2.154470   4.291225   1.086679   2.512687   0.000000
    21  N    7.315687   6.309350   7.571573   7.149140   8.612617
    22  O    7.320588   6.633775   7.379259   6.700230   8.361265
    23  O    8.396609   7.214488   8.729111   8.350781   9.783114
    24  N    1.479299   2.648030   2.475606   4.626324   2.676697
    25  O    2.321752   2.378117   3.571721   5.678782   3.895427
    26  O    2.319789   3.866555   2.726597   4.790344   2.409763
                   21         22         23         24         25
    21  N    0.000000
    22  O    1.228596   0.000000
    23  O    1.227780   2.174825   0.000000
    24  N    8.555965   8.628099   9.585228   0.000000
    25  O    8.628104   8.848631   9.560615   1.228587   0.000000
    26  O    9.585237   9.560617  10.656629   1.227793   2.174829
                   26
    26  O    0.000000
 Stoichiometry    C12H8N2O4
 Framework group  C1[X(C12H8N2O4)]
 Deg. of freedom    72
 Full point group                 C1      NOp   1
 Largest Abelian subgroup         C1      NOp   1
 Largest concise Abelian subgroup C1      NOp   1
                         Standard orientation:                         
 ---------------------------------------------------------------------
 Center     Atomic      Atomic             Coordinates (Angstroms)
 Number     Number       Type             X           Y           Z
 ---------------------------------------------------------------------
      1          6           0       -3.057930    0.177210   -0.057891
      2          6           0       -1.803430   -0.429340   -0.068041
      3          6           0       -0.675050    0.311780    0.314789
      4          6           0       -0.855100    1.654440    0.697869
      5          6           0       -2.122030    2.242660    0.699459
      6          6           0       -3.245430    1.506920    0.319059
      7          1           0       -1.722470   -1.461750   -0.397321
      8          1           0        0.003800    2.242260    1.020219
      9          1           0       -2.236499    3.281570    1.007119
     10          1           0       -4.242760    1.938350    0.311239
     11          6           0        0.675120   -0.311760    0.314639
     12          6           0        0.855270   -1.654410    0.697739
     13          6           0        1.803420    0.429339   -0.068501
     14          6           0        2.122200   -2.242621    0.699039
     15          1           0       -0.003560   -2.242210    1.020319
     16          6           0        3.057910   -0.177211   -0.058611
     17          1           0        1.722380    1.461729   -0.397801
     18          6           0        3.245510   -1.506901    0.318339
     19          1           0        2.236740   -3.281531    1.006729
     20          1           0        4.242840   -1.938341    0.310309
     21          7           0       -4.232640   -0.621620   -0.470501
     22          8           0       -4.044650   -1.793380   -0.788441
     23          8           0       -5.327950   -0.066880   -0.468751
     24          7           0        4.232520    0.621599   -0.471551
     25          8           0        4.044460    1.793339   -0.789491
     26          8           0        5.327840    0.066849   -0.470041
 ---------------------------------------------------------------------
 Rotational constants (GHZ):      1.0709915      0.1841904      0.1639102
 Leave Link  202 at Sat Apr 30 05:47:22 2005, MaxMem=  524288000 cpu:       0.0
 (Enter /home/ubuntu/g09/l301.exe)
 Standard basis: Aug-CC-pVDZ (5D, 7F)
 Ernie: Thresh=  0.10000D-02 Tol=  0.10000D-05 Strict=F.
 Ernie:  36 primitive shells out of 506 were deleted.
 There are   486 symmetry adapted basis functions of A   symmetry.
 Integral buffers will be    131072 words long.
 Raffenetti 2 integral format.
 Two-electron integral symmetry is turned on.
   486 basis functions,   862 primitive gaussians,   522 cartesian basis functions
    63 alpha electrons       63 beta electrons
       nuclear repulsion energy      1182.3493792096 Hartrees.
 IExCor=  402 DFT=T Ex+Corr=B3LYP ExCW=0 ScaHFX=  0.200000
 ScaDFX=  0.800000  0.720000  1.000000  0.810000 ScalE2=  1.000000  1.000000
 IRadAn=      5 IRanWt=     -1 IRanGd=            0 ICorTp=0
 NAtoms=   26 NActive=   26 NUniq=   26 SFac= 1.00D+00 NAtFMM=   50 NAOKFM=F Big=F
 Leave Link  301 at Sat Apr 30 05:47:22 2005, MaxMem=  524288000 cpu:       0.1
 (Enter /home/ubuntu/g09/l302.exe)
 NPDir=0 NMtPBC=     1 NCelOv=     1 NCel=       1 NClECP=     1 NCelD=      1
         NCelK=      1 NCelE2=     1 NClLst=     1 CellRange=     0.0.
 One-electron integrals computed using PRISM.
 NBasis=   486 RedAO= T  NBF=   486
 NBsUse=   486 1.00D-06 NBFU=   486
 Precomputing XC quadrature grid using
 IXCGrd= 2 IRadAn=           5 IRanWt=          -1 IRanGd=           0 AccXCQ= 0.00D+00.
 NRdTot=    2244 NPtTot=      606800 NUsed=      622859 NTot=      622891
 NSgBfM=   518   518   518   518   518 NAtAll=    26    26.
 Leave Link  302 at Sat Apr 30 05:47:23 2005, MaxMem=  524288000 cpu:       6.1
 (Enter /home/ubuntu/g09/l303.exe)
 DipDrv:  MaxL=1.
 Leave Link  303 at Sat Apr 30 05:47:23 2005, MaxMem=  524288000 cpu:       0.6
 (Enter /home/ubuntu/g09/l401.exe)
 Harris functional with IExCor=  402 diagonalized for initial guess.
 ExpMin= 2.97D-02 ExpMax= 1.17D+04 ExpMxC= 4.01D+02 IAcc=3 IRadAn=         5 AccDes= 0.00D+00
 HarFok:  IExCor=  402 AccDes= 0.00D+00 IRadAn=         5 IDoV= 1
 ScaDFX=  1.000000  1.000000  1.000000  1.000000
 FoFCou: FMM=F IPFlag=           0 FMFlag=      100000 FMFlg1=           0
         NFxFlg=           0 DoJE=T BraDBF=F KetDBF=T FulRan=T
         Omega=  0.000000  0.000000  1.000000  0.000000  0.000000 ICntrl=     500 IOpCl=  0
         NMat0=    1 NMatS0=    1 NMatT0=    0 NMatD0=    1 NMtDS0=    0 NMtDT0=    0
         I1Cent=           4 NGrid=           0.
 Petite list used in FoFCou.
 Harris En= -872.404312171284    
 Initial guess orbital symmetries:
       Occupied  (A) (A) (A) (A) (A) (A) (A) (A) (A) (A) (A) (A)
                 (A) (A) (A) (A) (A) (A) (A) (A) (A) (A) (A) (A)
                 (A) (A) (A) (A) (A) (A) (A) (A) (A) (A) (A) (A)
                 (A) (A) (A) (A) (A) (A) (A) (A) (A) (A) (A) (A)
                 (A) (A) (A) (A) (A) (A) (A) (A) (A) (A) (A) (A)
                 (A) (A) (A)
       Virtual   (A) (A) (A) (A) (A) (A) (A) (A) (A) (A) (A) (A)
                 (A) (A) (A) (A) (A) (A) (A) (A) (A) (A) (A) (A)
                 (A) (A) (A) (A) (A) (A) (A) (A) (A) (A) (A) (A)
                 (A) (A) (A) (A) (A) (A) (A) (A) (A) (A) (A) (A)
                 (A) (A) (A) (A) (A) (A) (A) (A) (A) (A) (A) (A)
                 (A) (A) (A) (A) (A) (A) (A) (A) (A) (A) (A) (A)
                 (A) (A) (A) (A) (A) (A) (A) (A) (A) (A) (A) (A)
                 (A) (A) (A) (A) (A) (A) (A) (A) (A) (A) (A) (A)
                 (A) (A) (A) (A) (A) (A) (A) (A) (A) (A) (A) (A)
                 (A) (A) (A) (A) (A) (A) (A) (A) (A) (A) (A) (A)
                 (A) (A) (A) (A) (A) (A) (A) (A) (A) (A) (A) (A)
                 (A) (A) (A) (A) (A) (A) (A) (A) (A) (A) (A) (A)
                 (A) (A) (A) (A) (A) (A) (A) (A) (A) (A) (A) (A)
                 (A) (A) (A) (A) (A) (A) (A) (A) (A) (A) (A) (A)
                 (A) (A) (A) (A) (A) (A) (A) (A) (A) (A) (A) (A)
                 (A) (A) (A) (A) (A) (A) (A) (A) (A) (A) (A) (A)
                 (A) (A) (A) (A) (A) (A) (A) (A) (A) (A) (A) (A)
                 (A) (A) (A) (A) (A) (A) (A) (A) (A) (A) (A) (A)
                 (A) (A) (A) (A) (A) (A) (A) (A) (A) (A) (A) (A)
                 (A) (A) (A) (A) (A) (A) (A) (A) (A) (A) (A) (A)
                 (A) (A) (A) (A) (A) (A) (A) (A) (A) (A) (A) (A)
                 (A) (A) (A) (A) (A) (A) (A) (A) (A) (A) (A) (A)
                 (A) (A) (A) (A) (A) (A) (A) (A) (A) (A) (A) (A)
                 (A) (A) (A) (A) (A) (A) (A) (A) (A) (A) (A) (A)
                 (A) (A) (A) (A) (A) (A) (A) (A) (A) (A) (A) (A)
                 (A) (A) (A) (A) (A) (A) (A) (A) (A) (A) (A) (A)
                 (A) (A) (A) (A) (A) (A) (A) (A) (A) (A) (A) (A)
                 (A) (A) (A) (A) (A) (A) (A) (A) (A) (A) (A) (A)
                 (A) (A) (A) (A) (A) (A) (A) (A) (A) (A) (A) (A)
                 (A) (A) (A) (A) (A) (A) (A) (A) (A) (A) (A) (A)
                 (A) (A) (A) (A) (A) (A) (A) (A) (A) (A) (A) (A)
                 (A) (A) (A) (A) (A) (A) (A) (A) (A) (A) (A) (A)
                 (A) (A) (A) (A) (A) (A) (A) (A) (A) (A) (A) (A)
                 (A) (A) (A) (A) (A) (A) (A) (A) (A) (A) (A) (A)
                 (A) (A) (A) (A) (A) (A) (A) (A) (A) (A) (A) (A)
                 (A) (A) (A)
 The electronic state of the initial guess is 1-A.
 Leave Link  401 at Sat Apr 30 05:47:31 2005, MaxMem=  524288000 cpu:      56.6
 (Enter /home/ubuntu/g09/l502.exe)
 Closed shell SCF:
 Requested convergence on RMS density matrix=1.00D-08 within 128 cycles.
 Requested convergence on MAX density matrix=1.00D-06.
 Requested convergence on             energy=1.00D-06.
 No special actions if energy rises.
 Using DIIS extrapolation, IDIIS=  1040.
 Integral symmetry usage will be decided dynamically.
       622612 words used for storage of precomputed grid.
 IEnd=     1465736 IEndB=     1465736 NGot=   524288000 MDV=   523111911
 LenX=   523111911 LenY=   522838905
 Fock matrices will be formed incrementally for  20 cycles.

 Cycle   1  Pass 1  IDiag  1:
 FoFCou: FMM=F IPFlag=           0 FMFlag=      100000 FMFlg1=           0
         NFxFlg=           0 DoJE=F BraDBF=F KetDBF=F FulRan=T
         Omega=  0.000000  0.000000  1.000000  0.000000  0.000000 ICntrl=       0 IOpCl=  0
         NMat0=    1 NMatS0=    1 NMatT0=    0 NMatD0=    1 NMtDS0=    0 NMtDT0=    0
         I1Cent=           0 NGrid=           0.
 Symmetry not used in FoFCou.
 E= -871.979196278793    
 DIIS: error= 2.25D-02 at cycle   1 NSaved=   1.
 NSaved= 1 IEnMin= 1 EnMin= -871.979196278793     IErMin= 1 ErrMin= 2.25D-02
 ErrMax= 2.25D-02 EMaxC= 1.00D-01 BMatC= 5.25D-01 BMatP= 5.25D-01
 IDIUse=3 WtCom= 7.75D-01 WtEn= 2.25D-01
 Coeff-Com:  0.100D+01
 Coeff-En:   0.100D+01
 Coeff:      0.100D+01
 Gap=     0.146 Goal=   None    Shift=    0.000
 GapD=    0.146 DampG=1.000 DampE=0.500 DampFc=0.5000 IDamp=-1.
 Damping current iteration by 5.00D-01
 RMSDP=5.35D-02 MaxDP=2.74D+00              OVMax= 3.45D-01

 Cycle   2  Pass 1  IDiag  1:
 RMSU=  8.83D-03    CP:  8.32D-01
 E= -872.057629267486     Delta-E=       -0.078432988692 Rises=F Damp=T
 DIIS: error= 1.30D-02 at cycle   2 NSaved=   2.
 NSaved= 2 IEnMin= 2 EnMin= -872.057629267486     IErMin= 2 ErrMin= 1.30D-02
 ErrMax= 1.30D-02 EMaxC= 1.00D-01 BMatC= 1.15D-01 BMatP= 5.25D-01
 IDIUse=3 WtCom= 8.70D-01 WtEn= 1.30D-01
 Coeff-Com:  0.290D+00 0.710D+00
 Coeff-En:   0.421D+00 0.579D+00
 Coeff:      0.307D+00 0.693D+00
 Gap=     0.152 Goal=   None    Shift=    0.000
 RMSDP=2.22D-02 MaxDP=1.22D+00 DE=-7.84D-02 OVMax= 2.29D-01

 Cycle   3  Pass 1  IDiag  1:
 RMSU=  4.05D-03    CP:  6.84D-01  1.39D+00
 E= -872.411940577157     Delta-E=       -0.354311309672 Rises=F Damp=F
 DIIS: error= 3.77D-03 at cycle   3 NSaved=   3.
 NSaved= 3 IEnMin= 3 EnMin= -872.411940577157     IErMin= 3 ErrMin= 3.77D-03
 ErrMax= 3.77D-03 EMaxC= 1.00D-01 BMatC= 1.78D-02 BMatP= 1.15D-01
 IDIUse=3 WtCom= 9.62D-01 WtEn= 3.77D-02
 Coeff-Com:  0.103D+00 0.300D+00 0.597D+00
 Coeff-En:   0.000D+00 0.000D+00 0.100D+01
 Coeff:      0.994D-01 0.289D+00 0.612D+00
 Gap=     0.163 Goal=   None    Shift=    0.000
 RMSDP=4.06D-03 MaxDP=2.58D-01 DE=-3.54D-01 OVMax= 5.04D-02

 Cycle   4  Pass 1  IDiag  1:
 RMSU=  1.55D-03    CP:  6.98D-01  1.19D+00  8.12D-01
 E= -872.424503660808     Delta-E=       -0.012563083651 Rises=F Damp=F
 DIIS: error= 2.67D-03 at cycle   4 NSaved=   4.
 NSaved= 4 IEnMin= 4 EnMin= -872.424503660808     IErMin= 4 ErrMin= 2.67D-03
 ErrMax= 2.67D-03 EMaxC= 1.00D-01 BMatC= 6.29D-03 BMatP= 1.78D-02
 IDIUse=3 WtCom= 9.73D-01 WtEn= 2.67D-02
 Coeff-Com:  0.308D-01 0.775D-01 0.375D+00 0.516D+00
 Coeff-En:   0.000D+00 0.000D+00 0.275D+00 0.725D+00
 Coeff:      0.300D-01 0.755D-01 0.373D+00 0.522D+00
 Gap=     0.161 Goal=   None    Shift=    0.000
 RMSDP=1.09D-03 MaxDP=4.64D-02 DE=-1.26D-02 OVMax= 2.83D-02

 Cycle   5  Pass 1  IDiag  1:
 RMSU=  4.96D-04    CP:  6.97D-01  1.20D+00  8.55D-01  6.48D-01
 E= -872.430572930273     Delta-E=       -0.006069269465 Rises=F Damp=F
 DIIS: error= 9.43D-04 at cycle   5 NSaved=   5.
 NSaved= 5 IEnMin= 5 EnMin= -872.430572930273     IErMin= 5 ErrMin= 9.43D-04
 ErrMax= 9.43D-04 EMaxC= 1.00D-01 BMatC= 5.70D-04 BMatP= 6.29D-03
 IDIUse=3 WtCom= 9.91D-01 WtEn= 9.43D-03
 Coeff-Com:  0.703D-02 0.890D-02 0.150D+00 0.302D+00 0.532D+00
 Coeff-En:   0.000D+00 0.000D+00 0.000D+00 0.297D-01 0.970D+00
 Coeff:      0.697D-02 0.882D-02 0.149D+00 0.300D+00 0.536D+00
 Gap=     0.159 Goal=   None    Shift=    0.000
 RMSDP=4.82D-04 MaxDP=2.73D-02 DE=-6.07D-03 OVMax= 9.97D-03

 Cycle   6  Pass 1  IDiag  1:
 RMSU=  1.95D-04    CP:  6.96D-01  1.22D+00  8.41D-01  6.42D-01  6.29D-01
 E= -872.431097087962     Delta-E=       -0.000524157689 Rises=F Damp=F
 DIIS: error= 4.35D-04 at cycle   6 NSaved=   6.
 NSaved= 6 IEnMin= 6 EnMin= -872.431097087962     IErMin= 6 ErrMin= 4.35D-04
 ErrMax= 4.35D-04 EMaxC= 1.00D-01 BMatC= 9.30D-05 BMatP= 5.70D-04
 IDIUse=3 WtCom= 9.96D-01 WtEn= 4.35D-03
 Coeff-Com:  0.179D-02-0.115D-02 0.585D-01 0.137D+00 0.344D+00 0.460D+00
 Coeff-En:   0.000D+00 0.000D+00 0.000D+00 0.000D+00 0.147D+00 0.853D+00
 Coeff:      0.178D-02-0.115D-02 0.583D-01 0.136D+00 0.343D+00 0.462D+00
 Gap=     0.161 Goal=   None    Shift=    0.000
 RMSDP=1.59D-04 MaxDP=5.47D-03 DE=-5.24D-04 OVMax= 3.62D-03

 Cycle   7  Pass 1  IDiag  1:
 RMSU=  6.18D-05    CP:  6.96D-01  1.21D+00  8.45D-01  6.65D-01  7.04D-01
                    CP:  6.57D-01
 E= -872.431197075098     Delta-E=       -0.000099987135 Rises=F Damp=F
 DIIS: error= 7.98D-05 at cycle   7 NSaved=   7.
 NSaved= 7 IEnMin= 7 EnMin= -872.431197075098     IErMin= 7 ErrMin= 7.98D-05
 ErrMax= 7.98D-05 EMaxC= 1.00D-01 BMatC= 1.03D-05 BMatP= 9.30D-05
 IDIUse=1 WtCom= 1.00D+00 WtEn= 0.00D+00
 Coeff-Com:  0.414D-03-0.207D-02 0.220D-01 0.582D-01 0.172D+00 0.296D+00
 Coeff-Com:  0.454D+00
 Coeff:      0.414D-03-0.207D-02 0.220D-01 0.582D-01 0.172D+00 0.296D+00
 Coeff:      0.454D+00
 Gap=     0.160 Goal=   None    Shift=    0.000
 RMSDP=3.62D-05 MaxDP=1.70D-03 DE=-1.00D-04 OVMax= 1.32D-03

 Cycle   8  Pass 1  IDiag  1:
 RMSU=  1.91D-05    CP:  6.96D-01  1.21D+00  8.47D-01  6.65D-01  6.99D-01
                    CP:  6.60D-01  7.48D-01
 E= -872.431204018285     Delta-E=       -0.000006943188 Rises=F Damp=F
 DIIS: error= 7.18D-05 at cycle   8 NSaved=   8.
 NSaved= 8 IEnMin= 8 EnMin= -872.431204018285     IErMin= 8 ErrMin= 7.18D-05
 ErrMax= 7.18D-05 EMaxC= 1.00D-01 BMatC= 3.11D-06 BMatP= 1.03D-05
 IDIUse=1 WtCom= 1.00D+00 WtEn= 0.00D+00
 Coeff-Com:  0.595D-04-0.162D-02 0.884D-02 0.267D-01 0.869D-01 0.166D+00
 Coeff-Com:  0.352D+00 0.362D+00
 Coeff:      0.595D-04-0.162D-02 0.884D-02 0.267D-01 0.869D-01 0.166D+00
 Coeff:      0.352D+00 0.362D+00
 Gap=     0.160 Goal=   None    Shift=    0.000
 RMSDP=1.09D-05 MaxDP=3.35D-04 DE=-6.94D-06 OVMax= 6.58D-04

 Cycle   9  Pass 1  IDiag  1:
 RMSU=  6.23D-06    CP:  6.96D-01  1.21D+00  8.47D-01  6.65D-01  6.97D-01
                    CP:  6.66D-01  7.33D-01  9.00D-01
 E= -872.431206363514     Delta-E=       -0.000002345229 Rises=F Damp=F
 DIIS: error= 1.33D-05 at cycle   9 NSaved=   9.
 NSaved= 9 IEnMin= 9 EnMin= -872.431206363514     IErMin= 9 ErrMin= 1.33D-05
 ErrMax= 1.33D-05 EMaxC= 1.00D-01 BMatC= 1.66D-07 BMatP= 3.11D-06
 IDIUse=1 WtCom= 1.00D+00 WtEn= 0.00D+00
 Coeff-Com: -0.209D-04-0.641D-03 0.144D-02 0.590D-02 0.216D-01 0.451D-01
 Coeff-Com:  0.128D+00 0.221D+00 0.578D+00
 Coeff:     -0.209D-04-0.641D-03 0.144D-02 0.590D-02 0.216D-01 0.451D-01
 Coeff:      0.128D+00 0.221D+00 0.578D+00
 Gap=     0.160 Goal=   None    Shift=    0.000
 RMSDP=5.96D-06 MaxDP=3.00D-04 DE=-2.35D-06 OVMax= 1.30D-04

 Cycle  10  Pass 1  IDiag  1:
 RMSU=  2.90D-06    CP:  6.96D-01  1.21D+00  8.47D-01  6.65D-01  6.98D-01
                    CP:  6.62D-01  7.34D-01  8.00D-01  7.00D-01
 E= -872.431206486760     Delta-E=       -0.000000123246 Rises=F Damp=F
 DIIS: error= 5.13D-06 at cycle  10 NSaved=  10.
 NSaved=10 IEnMin=10 EnMin= -872.431206486760     IErMin=10 ErrMin= 5.13D-06
 ErrMax= 5.13D-06 EMaxC= 1.00D-01 BMatC= 2.49D-08 BMatP= 1.66D-07
 IDIUse=1 WtCom= 1.00D+00 WtEn= 0.00D+00
 Coeff-Com: -0.262D-05-0.190D-03-0.583D-04 0.564D-03 0.291D-02 0.813D-02
 Coeff-Com:  0.369D-01 0.937D-01 0.356D+00 0.502D+00
 Coeff:     -0.262D-05-0.190D-03-0.583D-04 0.564D-03 0.291D-02 0.813D-02
 Coeff:      0.369D-01 0.937D-01 0.356D+00 0.502D+00
 Gap=     0.160 Goal=   None    Shift=    0.000
 RMSDP=2.42D-06 MaxDP=1.25D-04 DE=-1.23D-07 OVMax= 7.14D-05

 Cycle  11  Pass 1  IDiag  1:
 RMSU=  1.24D-06    CP:  6.96D-01  1.21D+00  8.47D-01  6.65D-01  6.98D-01
                    CP:  6.62D-01  7.35D-01  8.19D-01  7.59D-01  7.66D-01
 E= -872.431206513769     Delta-E=       -0.000000027009 Rises=F Damp=F
 DIIS: error= 8.47D-07 at cycle  11 NSaved=  11.
 NSaved=11 IEnMin=11 EnMin= -872.431206513769     IErMin=11 ErrMin= 8.47D-07
 ErrMax= 8.47D-07 EMaxC= 1.00D-01 BMatC= 9.61D-10 BMatP= 2.49D-08
 IDIUse=1 WtCom= 1.00D+00 WtEn= 0.00D+00
 Coeff-Com:  0.721D-05-0.149D-04-0.119D-03-0.325D-03-0.115D-02-0.126D-02
 Coeff-Com: -0.703D-04 0.721D-02 0.564D-01 0.194D+00 0.746D+00
 Coeff:      0.721D-05-0.149D-04-0.119D-03-0.325D-03-0.115D-02-0.126D-02
 Coeff:     -0.703D-04 0.721D-02 0.564D-01 0.194D+00 0.746D+00
 Gap=     0.160 Goal=   None    Shift=    0.000
 RMSDP=9.11D-07 MaxDP=3.22D-05 DE=-2.70D-08 OVMax= 9.51D-06

 Cycle  12  Pass 1  IDiag  1:
 RMSU=  5.04D-07    CP:  6.96D-01  1.21D+00  8.47D-01  6.65D-01  6.98D-01
                    CP:  6.63D-01  7.38D-01  8.27D-01  7.74D-01  8.46D-01
                    CP:  9.82D-01
 E= -872.431206514682     Delta-E=       -0.000000000913 Rises=F Damp=F
 DIIS: error= 1.37D-07 at cycle  12 NSaved=  12.
 NSaved=12 IEnMin=12 EnMin= -872.431206514682     IErMin=12 ErrMin= 1.37D-07
 ErrMax= 1.37D-07 EMaxC= 1.00D-01 BMatC= 3.61D-11 BMatP= 9.61D-10
 IDIUse=1 WtCom= 1.00D+00 WtEn= 0.00D+00
 Coeff-Com:  0.363D-05 0.146D-05-0.448D-04-0.166D-03-0.616D-03-0.873D-03
 Coeff-Com: -0.166D-02-0.175D-02 0.341D-02 0.472D-01 0.246D+00 0.709D+00
 Coeff:      0.363D-05 0.146D-05-0.448D-04-0.166D-03-0.616D-03-0.873D-03
 Coeff:     -0.166D-02-0.175D-02 0.341D-02 0.472D-01 0.246D+00 0.709D+00
 Gap=     0.160 Goal=   None    Shift=    0.000
 RMSDP=7.28D-07 MaxDP=1.92D-05 DE=-9.13D-10 OVMax= 1.62D-06

 Cycle  13  Pass 1  IDiag  1:
 RMSU=  2.39D-07    CP:  6.96D-01  1.21D+00  8.47D-01  6.65D-01  6.98D-01
                    CP:  6.63D-01  7.38D-01  8.27D-01  7.80D-01  8.99D-01
                    CP:  1.13D+00  1.65D+00
 E= -872.431206514788     Delta-E=       -0.000000000106 Rises=F Damp=F
 DIIS: error= 9.69D-08 at cycle  13 NSaved=  13.
 NSaved=13 IEnMin=13 EnMin= -872.431206514788     IErMin=13 ErrMin= 9.69D-08
 ErrMax= 9.69D-08 EMaxC= 1.00D-01 BMatC= 8.80D-12 BMatP= 3.61D-11
 IDIUse=1 WtCom= 1.00D+00 WtEn= 0.00D+00
 Coeff-Com:  0.135D-05 0.150D-05-0.900D-05-0.480D-04-0.184D-03-0.269D-03
 Coeff-Com: -0.691D-03-0.140D-02-0.377D-02 0.428D-02 0.442D-01 0.381D+00
 Coeff-Com:  0.577D+00
 Coeff:      0.135D-05 0.150D-05-0.900D-05-0.480D-04-0.184D-03-0.269D-03
 Coeff:     -0.691D-03-0.140D-02-0.377D-02 0.428D-02 0.442D-01 0.381D+00
 Coeff:      0.577D+00
 Gap=     0.160 Goal=   None    Shift=    0.000
 RMSDP=6.66D-07 MaxDP=1.89D-05 DE=-1.06D-10 OVMax= 8.19D-07

 Cycle  14  Pass 1  IDiag  1:
 RMSU=  1.14D-07    CP:  6.96D-01  1.21D+00  8.47D-01  6.65D-01  6.98D-01
                    CP:  6.63D-01  7.39D-01  8.28D-01  7.86D-01  9.34D-01
                    CP:  1.24D+00  2.32D+00  1.84D+00
 E= -872.431206514811     Delta-E=       -0.000000000024 Rises=F Damp=F
 DIIS: error= 8.35D-08 at cycle  14 NSaved=  14.
 NSaved=14 IEnMin=14 EnMin= -872.431206514811     IErMin=14 ErrMin= 8.35D-08
 ErrMax= 8.35D-08 EMaxC= 1.00D-01 BMatC= 6.50D-13 BMatP= 8.80D-12
 IDIUse=1 WtCom= 1.00D+00 WtEn= 0.00D+00
 Coeff-Com:  0.295D-06 0.428D-06-0.111D-05-0.844D-05-0.334D-04-0.487D-04
 Coeff-Com: -0.162D-03-0.406D-03-0.160D-02-0.116D-02 0.758D-03 0.858D-01
 Coeff-Com:  0.207D+00 0.710D+00
 Coeff:      0.295D-06 0.428D-06-0.111D-05-0.844D-05-0.334D-04-0.487D-04
 Coeff:     -0.162D-03-0.406D-03-0.160D-02-0.116D-02 0.758D-03 0.858D-01
 Coeff:      0.207D+00 0.710D+00
 Gap=     0.160 Goal=   None    Shift=    0.000
 RMSDP=8.32D-07 MaxDP=2.29D-05 DE=-2.36D-11 OVMax= 1.20D-07

 Cycle  15  Pass 1  IDiag  1:
 RMSU=  7.64D-08    CP:  6.96D-01  1.21D+00  8.47D-01  6.65D-01  6.97D-01
                    CP:  6.63D-01  7.39D-01  8.29D-01  7.93D-01  9.78D-01
                    CP:  1.39D+00  3.00D+00  2.97D+00  1.92D+00
 E= -872.431206515036     Delta-E=       -0.000000000225 Rises=F Damp=F
 DIIS: error= 1.04D-07 at cycle  15 NSaved=  15.
 NSaved=15 IEnMin=15 EnMin= -872.431206515036     IErMin=14 ErrMin= 8.35D-08
 ErrMax= 1.04D-07 EMaxC= 1.00D-01 BMatC= 7.68D-13 BMatP= 6.50D-13
 IDIUse=1 WtCom= 1.00D+00 WtEn= 0.00D+00
 Coeff-Com:  0.395D-06 0.569D-06-0.147D-05-0.114D-04-0.449D-04-0.651D-04
 Coeff-Com: -0.218D-03-0.544D-03-0.215D-02-0.158D-02 0.108D-02 0.115D+00
 Coeff-Com:  0.275D+00 0.974D+00-0.360D+00
 Coeff:      0.395D-06 0.569D-06-0.147D-05-0.114D-04-0.449D-04-0.651D-04
 Coeff:     -0.218D-03-0.544D-03-0.215D-02-0.158D-02 0.108D-02 0.115D+00
 Coeff:      0.275D+00 0.974D+00-0.360D+00
 Gap=     0.160 Goal=   None    Shift=    0.000
 RMSDP=4.58D-07 MaxDP=1.33D-05 DE=-2.25D-10 OVMax= 1.14D-07

 Cycle  16  Pass 1  IDiag  1:
 RMSU=  9.30D-08    CP:  6.96D-01  1.21D+00  8.47D-01  6.65D-01  6.97D-01
                    CP:  6.63D-01  7.39D-01  8.29D-01  7.92D-01  9.63D-01
                    CP:  1.33D+00  2.68D+00  2.40D+00  1.01D+00  4.14D-01
 E= -872.431206514912     Delta-E=        0.000000000124 Rises=F Damp=F
 DIIS: error= 8.86D-08 at cycle  16 NSaved=  16.
 NSaved=16 IEnMin=15 EnMin= -872.431206515036     IErMin=14 ErrMin= 8.35D-08
 ErrMax= 8.86D-08 EMaxC= 1.00D-01 BMatC= 8.45D-13 BMatP= 6.50D-13
 IDIUse=1 WtCom= 1.00D+00 WtEn= 0.00D+00
 Coeff-Com:  0.368D-06 0.618D-06-0.215D-06-0.770D-05-0.321D-04-0.448D-04
 Coeff-Com: -0.209D-03-0.613D-03-0.291D-02-0.405D-02-0.100D-01 0.109D+00
 Coeff-Com:  0.354D+00 0.185D+01-0.304D+01 0.174D+01
 Coeff:      0.368D-06 0.618D-06-0.215D-06-0.770D-05-0.321D-04-0.448D-04
 Coeff:     -0.209D-03-0.613D-03-0.291D-02-0.405D-02-0.100D-01 0.109D+00
 Coeff:      0.354D+00 0.185D+01-0.304D+01 0.174D+01
 Gap=     0.160 Goal=   None    Shift=    0.000
 RMSDP=2.05D-06 MaxDP=6.14D-05 DE= 1.24D-10 OVMax= 3.07D-07

 Cycle  17  Pass 1  IDiag  1:
 RMSU=  1.82D-07    CP:  6.96D-01  1.21D+00  8.47D-01  6.65D-01  6.98D-01
                    CP:  6.63D-01  7.38D-01  8.27D-01  7.87D-01  8.85D-01
                    CP:  1.04D+00  6.18D-01 -1.96D-01 -2.74D+00  8.71D-01
                    CP:  3.00D+00
 E= -872.431206514948     Delta-E=       -0.000000000036 Rises=F Damp=F
 DIIS: error= 5.89D-08 at cycle  17 NSaved=  17.
 NSaved=17 IEnMin=15 EnMin= -872.431206515036     IErMin=17 ErrMin= 5.89D-08
 ErrMax= 5.89D-08 EMaxC= 1.00D-01 BMatC= 4.67D-13 BMatP= 6.50D-13
 IDIUse=1 WtCom= 1.00D+00 WtEn= 0.00D+00
 Coeff-Com:  0.163D-06 0.305D-06 0.614D-06-0.115D-05-0.670D-05-0.807D-05
 Coeff-Com: -0.806D-04-0.314D-03-0.174D-02-0.315D-02-0.109D-01 0.467D-01
 Coeff-Com:  0.223D+00 0.138D+01-0.304D+01 0.184D+01 0.571D+00
 Coeff:      0.163D-06 0.305D-06 0.614D-06-0.115D-05-0.670D-05-0.807D-05
 Coeff:     -0.806D-04-0.314D-03-0.174D-02-0.315D-02-0.109D-01 0.467D-01
 Coeff:      0.223D+00 0.138D+01-0.304D+01 0.184D+01 0.571D+00
 Gap=     0.160 Goal=   None    Shift=    0.000
 RMSDP=1.25D-06 MaxDP=4.10D-05 DE=-3.59D-11 OVMax= 1.10D-07

 Cycle  18  Pass 1  IDiag  1:
 RMSU=  1.61D-07    CP:  6.96D-01  1.21D+00  8.47D-01  6.65D-01  6.98D-01
                    CP:  6.63D-01  7.37D-01  8.25D-01  7.67D-01  7.98D-01
                    CP:  7.71D-01 -4.21D-01 -1.72D+00 -2.63D+00 -4.32D-01
                    CP:  1.16D+00  1.14D+00
 E= -872.431206514682     Delta-E=        0.000000000266 Rises=F Damp=F
 DIIS: error= 2.73D-08 at cycle  18 NSaved=  18.
 NSaved=18 IEnMin=15 EnMin= -872.431206515036     IErMin=18 ErrMin= 2.73D-08
 ErrMax= 2.73D-08 EMaxC= 1.00D-01 BMatC= 8.87D-14 BMatP= 4.67D-13
 IDIUse=1 WtCom= 1.00D+00 WtEn= 0.00D+00
 Coeff-Com: -0.283D-07 0.182D-07 0.792D-06 0.304D-05 0.104D-04 0.152D-04
 Coeff-Com:  0.240D-04-0.171D-04-0.342D-03-0.126D-02-0.650D-02-0.917D-02
 Coeff-Com:  0.528D-01 0.495D+00-0.160D+01 0.940D+00 0.244D+00 0.881D+00
 Coeff:     -0.283D-07 0.182D-07 0.792D-06 0.304D-05 0.104D-04 0.152D-04
 Coeff:      0.240D-04-0.171D-04-0.342D-03-0.126D-02-0.650D-02-0.917D-02
 Coeff:      0.528D-01 0.495D+00-0.160D+01 0.940D+00 0.244D+00 0.881D+00
 Gap=     0.160 Goal=   None    Shift=    0.000
 RMSDP=1.08D-06 MaxDP=3.07D-05 DE= 2.66D-10 OVMax= 1.11D-07

 Cycle  19  Pass 1  IDiag  1:
 RMSU=  2.00D-07    CP:  6.96D-01  1.21D+00  8.47D-01  6.65D-01  6.98D-01
                    CP:  6.63D-01  7.36D-01  8.25D-01  7.60D-01  7.47D-01
                    CP:  6.04D-01 -1.47D+00 -3.00D+00 -3.00D+00 -1.45D-01
                    CP:  2.12D+00  1.14D+00  1.07D+00
 E= -872.431206514643     Delta-E=        0.000000000039 Rises=F Damp=F
 DIIS: error= 2.24D-08 at cycle  19 NSaved=  19.
 NSaved=19 IEnMin=15 EnMin= -872.431206515036     IErMin=19 ErrMin= 2.24D-08
 ErrMax= 2.24D-08 EMaxC= 1.00D-01 BMatC= 4.08D-14 BMatP= 8.87D-14
 IDIUse=1 WtCom= 1.00D+00 WtEn= 0.00D+00
 Large coefficients: NSaved= 19 BigCof=    0.00 CofMax=   10.00 Det=-5.06D-15
 Inversion failed.  Reducing to 18 matrices.
 Large coefficients: NSaved= 18 BigCof=    0.00 CofMax=   10.00 Det=-5.08D-15
 Inversion failed.  Reducing to 17 matrices.
 Large coefficients: NSaved= 17 BigCof=    0.00 CofMax=   10.00 Det=-5.09D-15
 Inversion failed.  Reducing to 16 matrices.
 Large coefficients: NSaved= 16 BigCof=    0.00 CofMax=   10.00 Det=-5.23D-15
 Inversion failed.  Reducing to 15 matrices.
 Coeff-Com: -0.183D-06 0.144D-06-0.487D-05-0.333D-04-0.207D-03-0.374D-03
 Coeff-Com: -0.155D-02 0.388D-02 0.376D-01 0.242D+00-0.916D+00 0.478D+00
 Coeff-Com:  0.298D-01 0.489D+00 0.638D+00
 Coeff:     -0.183D-06 0.144D-06-0.487D-05-0.333D-04-0.207D-03-0.374D-03
 Coeff:     -0.155D-02 0.388D-02 0.376D-01 0.242D+00-0.916D+00 0.478D+00
 Coeff:      0.298D-01 0.489D+00 0.638D+00
 Gap=     0.160 Goal=   None    Shift=    0.000
 RMSDP=6.97D-07 MaxDP=2.05D-05 DE= 3.91D-11 OVMax= 6.42D-08

 Cycle  20  Pass 1  IDiag  1:
 Restarting incremental Fock formation.
 E= -872.431206479909     Delta-E=        0.000000034735 Rises=F Damp=F
 DIIS: error= 4.05D-07 at cycle  20 NSaved=  16.
 NSaved=16 IEnMin=11 EnMin= -872.431206515036     IErMin=15 ErrMin= 2.24D-08
 ErrMax= 4.05D-07 EMaxC= 1.00D-01 BMatC= 6.45D-11 BMatP= 4.08D-14
 IDIUse=1 WtCom= 1.00D+00 WtEn= 0.00D+00
 Large coefficients: NSaved= 16 BigCof=    0.00 CofMax=   10.00 Det=-5.20D-15
 Inversion failed.  Reducing to 15 matrices.
 Coeff-Com:  0.539D-06-0.412D-05-0.329D-04-0.211D-03-0.392D-03-0.163D-02
 Coeff-Com:  0.392D-02 0.380D-01 0.244D+00-0.920D+00 0.481D+00 0.310D-01
 Coeff-Com:  0.488D+00 0.637D+00 0.166D-03
 Coeff:      0.539D-06-0.412D-05-0.329D-04-0.211D-03-0.392D-03-0.163D-02
 Coeff:      0.392D-02 0.380D-01 0.244D+00-0.920D+00 0.481D+00 0.310D-01
 Coeff:      0.488D+00 0.637D+00 0.166D-03
 Gap=     0.160 Goal=   None    Shift=    0.000
 RMSDP=2.31D-09 MaxDP=5.77D-08 DE= 3.47D-08 OVMax= 1.05D-09

 Cycle  21  Pass 1  IDiag  1:
 RMSU=  1.53D-09    CP:  1.00D+00
 E= -872.431206479851     Delta-E=        0.000000000057 Rises=F Damp=F
 DIIS: error= 4.05D-07 at cycle  21 NSaved=  16.
 NSaved=16 IEnMin=10 EnMin= -872.431206515036     IErMin=14 ErrMin= 2.24D-08
 ErrMax= 4.05D-07 EMaxC= 1.00D-01 BMatC= 6.44D-11 BMatP= 4.08D-14
 IDIUse=1 WtCom= 1.00D+00 WtEn= 0.00D+00
 Large coefficients: NSaved= 16 BigCof=    0.00 CofMax=   10.00 Det=-8.54D-17
 Inversion failed.  Reducing to 15 matrices.
 Coeff-Com: -0.548D-05-0.345D-04-0.213D-03-0.394D-03-0.161D-02 0.400D-02
 Coeff-Com:  0.370D-01 0.235D+00-0.874D+00 0.456D+00 0.260D-01 0.468D+00
 Coeff-Com:  0.650D+00 0.709D+00-0.709D+00
 Coeff:     -0.548D-05-0.345D-04-0.213D-03-0.394D-03-0.161D-02 0.400D-02
 Coeff:      0.370D-01 0.235D+00-0.874D+00 0.456D+00 0.260D-01 0.468D+00
 Coeff:      0.650D+00 0.709D+00-0.709D+00
 Gap=     0.160 Goal=   None    Shift=    0.000
 RMSDP=5.40D-08 MaxDP=2.22D-06 DE= 5.73D-11 OVMax= 4.22D-09

 Cycle  22  Pass 1  IDiag  1:
 RMSU=  3.54D-08    CP:  1.00D+00  3.00D+00
 E= -872.431206479800     Delta-E=        0.000000000051 Rises=F Damp=F
 DIIS: error= 4.06D-07 at cycle  22 NSaved=  16.
 NSaved=16 IEnMin= 9 EnMin= -872.431206515036     IErMin=13 ErrMin= 2.24D-08
 ErrMax= 4.06D-07 EMaxC= 1.00D-01 BMatC= 6.46D-11 BMatP= 4.08D-14
 IDIUse=1 WtCom= 1.00D+00 WtEn= 0.00D+00
 Large coefficients: NSaved= 16 BigCof=    0.00 CofMax=   10.00 Det=-1.88D-17
 Inversion failed.  Reducing to 15 matrices.
 Coeff-Com: -0.952D-05-0.764D-04-0.133D-03-0.761D-03 0.109D-02 0.228D-01
 Coeff-Com:  0.141D+00-0.529D+00 0.277D+00-0.278D-02 0.346D+00 0.744D+00
 Coeff-Com: -0.346D+01 0.442D+01-0.960D+00
 Coeff:     -0.952D-05-0.764D-04-0.133D-03-0.761D-03 0.109D-02 0.228D-01
 Coeff:      0.141D+00-0.529D+00 0.277D+00-0.278D-02 0.346D+00 0.744D+00
 Coeff:     -0.346D+01 0.442D+01-0.960D+00
 Gap=     0.160 Goal=   None    Shift=    0.000
 RMSDP=2.18D-07 MaxDP=6.00D-06 DE= 5.09D-11 OVMax= 2.40D-08

 Cycle  23  Pass 1  IDiag  1:
 RMSU=  1.10D-07    CP:  1.00D+00  3.00D+00  3.00D+00
 E= -872.431206480108     Delta-E=       -0.000000000308 Rises=F Damp=F
 DIIS: error= 4.10D-07 at cycle  23 NSaved=  16.
 NSaved=16 IEnMin= 8 EnMin= -872.431206515036     IErMin=12 ErrMin= 2.24D-08
 ErrMax= 4.10D-07 EMaxC= 1.00D-01 BMatC= 6.49D-11 BMatP= 4.08D-14
 IDIUse=1 WtCom= 1.00D+00 WtEn= 0.00D+00
 Large coefficients: NSaved= 16 BigCof=    0.00 CofMax=   10.00 Det=-7.85D-18
 Inversion failed.  Reducing to 15 matrices.
 Coeff-Com: -0.259D-04-0.288D-04-0.363D-03 0.421D-03 0.173D-01 0.100D+00
 Coeff-Com: -0.384D+00 0.213D+00 0.116D-01 0.215D+00 0.829D+00 0.271D+01
 Coeff-Com: -0.370D+01 0.160D+01-0.613D+00
 Coeff:     -0.259D-04-0.288D-04-0.363D-03 0.421D-03 0.173D-01 0.100D+00
 Coeff:     -0.384D+00 0.213D+00 0.116D-01 0.215D+00 0.829D+00 0.271D+01
 Coeff:     -0.370D+01 0.160D+01-0.613D+00
 Gap=     0.160 Goal=   None    Shift=    0.000
 RMSDP=1.69D-07 MaxDP=9.28D-06 DE=-3.08D-10 OVMax= 9.42D-09

 Cycle  24  Pass 1  IDiag  1:
 RMSU=  1.08D-07    CP:  1.00D+00  3.00D+00  3.00D+00  1.20D+00
 E= -872.431206480160     Delta-E=       -0.000000000052 Rises=F Damp=F
 DIIS: error= 4.10D-07 at cycle  24 NSaved=  16.
 NSaved=16 IEnMin= 7 EnMin= -872.431206515036     IErMin=11 ErrMin= 2.24D-08
 ErrMax= 4.10D-07 EMaxC= 1.00D-01 BMatC= 6.52D-11 BMatP= 4.08D-14
 IDIUse=1 WtCom= 1.00D+00 WtEn= 0.00D+00
 Large coefficients: NSaved= 16 BigCof=    0.00 CofMax=   10.00 Det=-3.02D-18
 Inversion failed.  Reducing to 15 matrices.
 Coeff-Com:  0.410D-04-0.878D-04-0.271D-03 0.143D-01 0.831D-01-0.341D+00
 Coeff-Com:  0.189D+00 0.381D-02 0.214D+00 0.838D+00 0.919D+00-0.145D+01
 Coeff-Com:  0.102D+01-0.340D+00-0.148D+00
 Coeff:      0.410D-04-0.878D-04-0.271D-03 0.143D-01 0.831D-01-0.341D+00
 Coeff:      0.189D+00 0.381D-02 0.214D+00 0.838D+00 0.919D+00-0.145D+01
 Coeff:      0.102D+01-0.340D+00-0.148D+00
 Gap=     0.160 Goal=   None    Shift=    0.000
 RMSDP=3.15D-08 MaxDP=1.97D-06 DE=-5.23D-11 OVMax= 2.71D-09

 Cycle  25  Pass 1  IDiag  1:
 RMSU=  4.57D-09    CP:  1.00D+00  3.00D+00  3.00D+00  1.29D+00  8.36D-01
 E= -872.431206480195     Delta-E=       -0.000000000035 Rises=F Damp=F
 DIIS: error= 4.10D-07 at cycle  25 NSaved=  16.
 NSaved=16 IEnMin= 6 EnMin= -872.431206515036     IErMin=10 ErrMin= 2.24D-08
 ErrMax= 4.10D-07 EMaxC= 1.00D-01 BMatC= 6.51D-11 BMatP= 4.08D-14
 IDIUse=1 WtCom= 1.00D+00 WtEn= 0.00D+00
 Large coefficients: NSaved= 16 BigCof=    0.00 CofMax=   10.00 Det=-3.21D-18
 Inversion failed.  Reducing to 15 matrices.
 Coeff-Com:  0.102D-04-0.281D-03-0.418D-03 0.157D-01 0.965D-01-0.370D+00
 Coeff-Com:  0.204D+00 0.414D-02 0.228D+00 0.821D+00-0.269D+01 0.298D+01
 Coeff-Com:  0.374D-02-0.103D+01 0.739D+00
 Coeff:      0.102D-04-0.281D-03-0.418D-03 0.157D-01 0.965D-01-0.370D+00
 Coeff:      0.204D+00 0.414D-02 0.228D+00 0.821D+00-0.269D+01 0.298D+01
 Coeff:      0.374D-02-0.103D+01 0.739D+00
 Gap=     0.160 Goal=   None    Shift=    0.000
 RMSDP=8.32D-08 MaxDP=5.01D-06 DE=-3.46D-11 OVMax= 6.69D-09

 Cycle  26  Pass 1  IDiag  1:
 RMSU=  1.59D-08    CP:  1.00D+00  3.00D+00  3.00D+00  1.49D+00  4.02D-01
                    CP:  2.96D+00
 E= -872.431206480303     Delta-E=       -0.000000000108 Rises=F Damp=F
 DIIS: error= 4.10D-07 at cycle  26 NSaved=  16.
 NSaved=16 IEnMin= 6 EnMin= -872.431206515036     IErMin=10 ErrMin= 2.24D-08
 ErrMax= 4.10D-07 EMaxC= 1.00D-01 BMatC= 6.49D-11 BMatP= 4.08D-14
 IDIUse=1 WtCom= 1.00D+00 WtEn= 0.00D+00
 Large coefficients: NSaved= 16 BigCof=    0.00 CofMax=   10.00 Det=-2.90D-17
 Inversion failed.  Reducing to 15 matrices.
 Coeff-Com:  0.324D-04-0.152D-03-0.196D-03 0.147D-01 0.865D-01-0.324D+00
 Coeff-Com:  0.174D+00-0.139D-01 0.229D+00 0.835D+00 0.192D+00 0.122D+00
 Coeff-Com: -0.121D+00-0.412D-01-0.153D+00
 Coeff:      0.324D-04-0.152D-03-0.196D-03 0.147D-01 0.865D-01-0.324D+00
 Coeff:      0.174D+00-0.139D-01 0.229D+00 0.835D+00 0.192D+00 0.122D+00
 Coeff:     -0.121D+00-0.412D-01-0.153D+00
 Gap=     0.160 Goal=   None    Shift=    0.000
 RMSDP=1.10D-07 MaxDP=6.33D-06 DE=-1.08D-10 OVMax= 5.06D-09

 Cycle  27  Pass 1  IDiag  1:
 RMSU=  2.54D-08    CP:  1.00D+00  3.00D+00  3.00D+00  1.36D+00  9.31D-01
                    CP:  2.24D-01 -1.16D+00
 E= -872.431206480212     Delta-E=        0.000000000091 Rises=F Damp=F
 DIIS: error= 4.11D-07 at cycle  27 NSaved=  16.
 NSaved=16 IEnMin= 6 EnMin= -872.431206515036     IErMin=10 ErrMin= 2.24D-08
 ErrMax= 4.11D-07 EMaxC= 1.00D-01 BMatC= 6.51D-11 BMatP= 4.08D-14
 IDIUse=1 WtCom= 1.00D+00 WtEn= 0.00D+00
 Large coefficients: NSaved= 16 BigCof=    0.00 CofMax=   10.00 Det=-1.54D-16
 Inversion failed.  Reducing to 15 matrices.
 Coeff-Com:  0.336D-04-0.226D-03-0.333D-03 0.167D-01 0.108D+00-0.466D+00
 Coeff-Com:  0.248D+00 0.778D-02 0.250D+00 0.836D+00 0.419D+00 0.235D+00
 Coeff-Com:  0.222D+00-0.117D+00-0.760D+00
 Coeff:      0.336D-04-0.226D-03-0.333D-03 0.167D-01 0.108D+00-0.466D+00
 Coeff:      0.248D+00 0.778D-02 0.250D+00 0.836D+00 0.419D+00 0.235D+00
 Coeff:      0.222D+00-0.117D+00-0.760D+00
 Gap=     0.160 Goal=   None    Shift=    0.000
 RMSDP=2.13D-07 MaxDP=8.60D-06 DE= 9.09D-11 OVMax= 1.79D-08

 Cycle  28  Pass 1  IDiag  1:
 RMSU=  2.91D-08    CP:  1.00D+00  3.00D+00  3.00D+00  6.28D-01  6.53D-03
                    CP:  3.00D+00  1.08D+00 -1.20D+00
 E= -872.431206480160     Delta-E=        0.000000000053 Rises=F Damp=F
 DIIS: error= 4.09D-07 at cycle  28 NSaved=  16.
 NSaved=16 IEnMin= 6 EnMin= -872.431206515036     IErMin=10 ErrMin= 2.24D-08
 ErrMax= 4.09D-07 EMaxC= 1.00D-01 BMatC= 6.49D-11 BMatP= 4.08D-14
 IDIUse=1 WtCom= 1.00D+00 WtEn= 0.00D+00
 Large coefficients: NSaved= 16 BigCof=    0.00 CofMax=   10.00 Det=-1.55D-16
 Inversion failed.  Reducing to 15 matrices.
 Coeff-Com:  0.219D-04-0.149D-03-0.254D-03 0.132D-01 0.719D-01-0.312D+00
 Coeff-Com:  0.183D+00 0.287D-01 0.147D+00 0.871D+00 0.111D+00 0.449D+00
 Coeff-Com: -0.453D+00-0.610D+00 0.502D+00
 Coeff:      0.219D-04-0.149D-03-0.254D-03 0.132D-01 0.719D-01-0.312D+00
 Coeff:      0.183D+00 0.287D-01 0.147D+00 0.871D+00 0.111D+00 0.449D+00
 Coeff:     -0.453D+00-0.610D+00 0.502D+00
 Gap=     0.160 Goal=   None    Shift=    0.000
 RMSDP=2.19D-07 MaxDP=6.36D-06 DE= 5.28D-11 OVMax= 1.97D-08

 Cycle  29  Pass 1  IDiag  1:
 RMSU=  1.78D-08    CP:  1.00D+00  3.00D+00  3.00D+00  1.72D+00  8.36D-01
                    CP:  2.40D+00  2.07D+00 -6.38D-01  1.25D+00
 E= -872.431206480226     Delta-E=       -0.000000000067 Rises=F Damp=F
 DIIS: error= 4.10D-07 at cycle  29 NSaved=  16.
 NSaved=16 IEnMin= 6 EnMin= -872.431206515036     IErMin=10 ErrMin= 2.24D-08
 ErrMax= 4.10D-07 EMaxC= 1.00D-01 BMatC= 6.51D-11 BMatP= 4.08D-14
 IDIUse=1 WtCom= 1.00D+00 WtEn= 0.00D+00
 Large coefficients: NSaved= 16 BigCof=    0.00 CofMax=   10.00 Det=-1.24D-16
 Inversion failed.  Reducing to 15 matrices.
 Coeff-Com:  0.249D-04-0.127D-03-0.271D-03 0.129D-01 0.705D-01-0.311D+00
 Coeff-Com:  0.182D+00 0.298D-01 0.141D+00 0.877D+00 0.296D+00-0.448D+00
 Coeff-Com: -0.556D+00 0.521D+00 0.186D+00
 Coeff:      0.249D-04-0.127D-03-0.271D-03 0.129D-01 0.705D-01-0.311D+00
 Coeff:      0.182D+00 0.298D-01 0.141D+00 0.877D+00 0.296D+00-0.448D+00
 Coeff:     -0.556D+00 0.521D+00 0.186D+00
 Gap=     0.160 Goal=   None    Shift=    0.000
 RMSDP=3.06D-08 MaxDP=1.41D-06 DE=-6.68D-11 OVMax= 1.75D-09

 Cycle  30  Pass 1  IDiag  1:
 RMSU=  8.00D-09    CP:  1.00D+00  3.00D+00  3.00D+00  1.80D+00  7.54D-01
                    CP:  2.92D+00  2.71D+00 -7.62D-01  1.53D+00  1.45D+00
 E= -872.431206480217     Delta-E=        0.000000000010 Rises=F Damp=F
 DIIS: error= 4.10D-07 at cycle  30 NSaved=  16.
 NSaved=16 IEnMin= 6 EnMin= -872.431206515036     IErMin=10 ErrMin= 2.24D-08
 ErrMax= 4.10D-07 EMaxC= 1.00D-01 BMatC= 6.51D-11 BMatP= 4.08D-14
 IDIUse=1 WtCom= 1.00D+00 WtEn= 0.00D+00
 Large coefficients: NSaved= 16 BigCof=    0.00 CofMax=   10.00 Det=-9.21D-17
 Inversion failed.  Reducing to 15 matrices.
 Coeff-Com:  0.763D-06-0.393D-03-0.137D-03 0.173D-01 0.111D+00-0.475D+00
 Coeff-Com:  0.269D+00 0.498D-01 0.177D+00 0.852D+00 0.320D+00-0.301D+00
 Coeff-Com: -0.260D+00-0.255D+01 0.279D+01
 Coeff:      0.763D-06-0.393D-03-0.137D-03 0.173D-01 0.111D+00-0.475D+00
 Coeff:      0.269D+00 0.498D-01 0.177D+00 0.852D+00 0.320D+00-0.301D+00
 Coeff:     -0.260D+00-0.255D+01 0.279D+01
 Gap=     0.160 Goal=   None    Shift=    0.000
 RMSDP=1.94D-07 MaxDP=1.00D-05 DE= 9.55D-12 OVMax= 1.11D-08

 Cycle  31  Pass 1  IDiag  1:
 RMSU=  7.29D-08    CP:  1.00D+00  3.00D+00  3.00D+00  1.53D+00 -1.58D-01
                    CP:  1.33D+00  3.00D+00 -5.12D-01  2.21D+00  2.49D+00
                    CP:  3.00D+00
 E= -872.431206479950     Delta-E=        0.000000000266 Rises=F Damp=F
 DIIS: error= 4.09D-07 at cycle  31 NSaved=  16.
 NSaved=16 IEnMin= 6 EnMin= -872.431206515036     IErMin=10 ErrMin= 2.24D-08
 ErrMax= 4.09D-07 EMaxC= 1.00D-01 BMatC= 6.49D-11 BMatP= 4.08D-14
 IDIUse=1 WtCom= 1.00D+00 WtEn= 0.00D+00
 Large coefficients: NSaved= 16 BigCof=    0.00 CofMax=   10.00 Det=-1.15D-16
 Inversion failed.  Reducing to 15 matrices.
 Coeff-Com:  0.243D-04-0.230D-03-0.735D-03 0.153D-01 0.966D-01-0.395D+00
 Coeff-Com:  0.242D+00 0.639D-01 0.141D+00 0.838D+00-0.250D+00-0.768D-01
 Coeff-Com: -0.241D+01 0.225D+01 0.494D+00
 Coeff:      0.243D-04-0.230D-03-0.735D-03 0.153D-01 0.966D-01-0.395D+00
 Coeff:      0.242D+00 0.639D-01 0.141D+00 0.838D+00-0.250D+00-0.768D-01
 Coeff:     -0.241D+01 0.225D+01 0.494D+00
 Gap=     0.160 Goal=   None    Shift=    0.000
 RMSDP=2.17D-07 MaxDP=6.98D-06 DE= 2.66D-10 OVMax= 1.71D-08

 Cycle  32  Pass 1  IDiag  1:
 RMSU=  3.01D-08    CP:  1.00D+00  3.00D+00  3.00D+00  2.51D+00  6.01D-01
                    CP:  1.91D+00  3.00D+00  3.20D-01  2.67D+00  3.00D+00
                    CP:  3.00D+00  1.36D+00
 E= -872.431206480049     Delta-E=       -0.000000000098 Rises=F Damp=F
 DIIS: error= 4.10D-07 at cycle  32 NSaved=  16.
 NSaved=16 IEnMin= 6 EnMin= -872.431206515036     IErMin=10 ErrMin= 2.24D-08
 ErrMax= 4.10D-07 EMaxC= 1.00D-01 BMatC= 6.51D-11 BMatP= 4.08D-14
 IDIUse=1 WtCom= 1.00D+00 WtEn= 0.00D+00
 Large coefficients: NSaved= 16 BigCof=    0.00 CofMax=   10.00 Det=-9.65D-17
 Inversion failed.  Reducing to 15 matrices.
 Coeff-Com:  0.295D-04-0.203D-03-0.783D-03 0.150D-01 0.964D-01-0.390D+00
 Coeff-Com:  0.239D+00 0.618D-01 0.140D+00 0.839D+00-0.280D+00-0.208D+01
 Coeff-Com:  0.219D+01 0.443D+00-0.272D+00
 Coeff:      0.295D-04-0.203D-03-0.783D-03 0.150D-01 0.964D-01-0.390D+00
 Coeff:      0.239D+00 0.618D-01 0.140D+00 0.839D+00-0.280D+00-0.208D+01
 Coeff:      0.219D+01 0.443D+00-0.272D+00
 Gap=     0.160 Goal=   None    Shift=    0.000
 RMSDP=8.28D-08 MaxDP=4.00D-06 DE=-9.82D-11 OVMax= 3.70D-09

 Cycle  33  Pass 1  IDiag  1:
 RMSU=  1.18D-08    CP:  1.00D+00  3.00D+00  3.00D+00  2.30D+00  6.95D-01
                    CP:  2.46D+00  3.00D+00  1.23D-01  2.02D+00  2.34D+00
                    CP:  3.00D+00  9.07D-01  4.06D-01
 E= -872.431206480159     Delta-E=       -0.000000000110 Rises=F Damp=F
 DIIS: error= 4.10D-07 at cycle  33 NSaved=  16.
 NSaved=16 IEnMin= 6 EnMin= -872.431206515036     IErMin=10 ErrMin= 2.24D-08
 ErrMax= 4.10D-07 EMaxC= 1.00D-01 BMatC= 6.52D-11 BMatP= 4.08D-14
 IDIUse=1 WtCom= 1.00D+00 WtEn= 0.00D+00
 Large coefficients: NSaved= 16 BigCof=    0.00 CofMax=   10.00 Det=-9.38D-17
 Inversion failed.  Reducing to 15 matrices.
 Coeff-Com:  0.445D-04-0.828D-04-0.427D-03 0.131D-01 0.816D-01-0.310D+00
 Coeff-Com:  0.188D+00 0.371D-01 0.106D+00 0.886D+00-0.285D+00-0.222D+01
 Coeff-Com:  0.319D+01 0.625D+00-0.132D+01
 Coeff:      0.445D-04-0.828D-04-0.427D-03 0.131D-01 0.816D-01-0.310D+00
 Coeff:      0.188D+00 0.371D-01 0.106D+00 0.886D+00-0.285D+00-0.222D+01
 Coeff:      0.319D+01 0.625D+00-0.132D+01
 Gap=     0.160 Goal=   None    Shift=    0.000
 RMSDP=6.87D-08 MaxDP=4.48D-06 DE=-1.10D-10 OVMax= 3.66D-09

 Cycle  34  Pass 1  IDiag  1:
 RMSU=  1.87D-08    CP:  1.00D+00  3.00D+00  3.00D+00  2.40D+00  6.56D-01
                    CP:  2.08D+00  3.00D+00  1.68D-01  1.77D+00  2.36D+00
                    CP:  3.00D+00  4.45D-01 -2.97D-02  5.64D-01
 E= -872.431206480219     Delta-E=       -0.000000000060 Rises=F Damp=F
 DIIS: error= 4.10D-07 at cycle  34 NSaved=  16.
 NSaved=16 IEnMin= 6 EnMin= -872.431206515036     IErMin=10 ErrMin= 2.24D-08
 ErrMax= 4.10D-07 EMaxC= 1.00D-01 BMatC= 6.52D-11 BMatP= 4.08D-14
 IDIUse=1 WtCom= 1.00D+00 WtEn= 0.00D+00
 Large coefficients: NSaved= 16 BigCof=    0.00 CofMax=   10.00 Det=-6.02D-17
 Inversion failed.  Reducing to 15 matrices.
 Coeff-Com:  0.425D-04-0.113D-03-0.443D-03 0.138D-01 0.882D-01-0.353D+00
 Coeff-Com:  0.210D+00 0.414D-01 0.124D+00 0.878D+00-0.262D+00-0.180D+01
 Coeff-Com:  0.282D+01-0.729D+00-0.334D-01
 Coeff:      0.425D-04-0.113D-03-0.443D-03 0.138D-01 0.882D-01-0.353D+00
 Coeff:      0.210D+00 0.414D-01 0.124D+00 0.878D+00-0.262D+00-0.180D+01
 Coeff:      0.282D+01-0.729D+00-0.334D-01
 Gap=     0.160 Goal=   None    Shift=    0.000
 RMSDP=1.08D-07 MaxDP=3.25D-06 DE=-6.00D-11 OVMax= 8.00D-09

 Cycle  35  Pass 1  IDiag  1:
 RMSU=  6.32D-09    CP:  1.00D+00  3.00D+00  3.00D+00  1.91D+00  5.11D-01
                    CP:  2.80D+00  3.00D+00 -3.11D-01  1.28D+00  1.49D+00
                    CP:  2.21D+00  1.85D-01 -5.97D-01  1.27D+00  6.37D-01
 E= -872.431206480132     Delta-E=        0.000000000087 Rises=F Damp=F
 DIIS: error= 4.10D-07 at cycle  35 NSaved=  16.
 NSaved=16 IEnMin= 6 EnMin= -872.431206515036     IErMin=10 ErrMin= 2.24D-08
 ErrMax= 4.10D-07 EMaxC= 1.00D-01 BMatC= 6.52D-11 BMatP= 4.08D-14
 IDIUse=1 WtCom= 1.00D+00 WtEn= 0.00D+00
 Large coefficients: NSaved= 16 BigCof=    0.00 CofMax=   10.00 Det=-8.53D-17
 Inversion failed.  Reducing to 15 matrices.
 Coeff-Com:  0.162D-04-0.245D-03-0.523D-03 0.146D-01 0.883D-01-0.357D+00
 Coeff-Com:  0.227D+00 0.800D-01 0.561D-01 0.894D+00-0.439D+00-0.506D+00
 Coeff-Com:  0.843D+00-0.176D+01 0.186D+01
 Coeff:      0.162D-04-0.245D-03-0.523D-03 0.146D-01 0.883D-01-0.357D+00
 Coeff:      0.227D+00 0.800D-01 0.561D-01 0.894D+00-0.439D+00-0.506D+00
 Coeff:      0.843D+00-0.176D+01 0.186D+01
 Gap=     0.160 Goal=   None    Shift=    0.000
 RMSDP=1.29D-07 MaxDP=6.48D-06 DE= 8.69D-11 OVMax= 8.80D-09

 Cycle  36  Pass 1  IDiag  1:
 RMSU=  3.41D-08    CP:  1.00D+00  3.00D+00  3.00D+00  1.82D+00  1.13D+00
                    CP:  3.00D+00  3.00D+00 -7.95D-01  1.02D+00 -2.38D-02
                    CP: -7.98D-01  9.72D-02 -3.44D-01  2.36D+00 -3.77D-01
                    CP:  3.00D+00
 E= -872.431206480183     Delta-E=       -0.000000000051 Rises=F Damp=F
 DIIS: error= 4.10D-07 at cycle  36 NSaved=  16.
 NSaved=16 IEnMin= 6 EnMin= -872.431206515036     IErMin=10 ErrMin= 2.24D-08
 ErrMax= 4.10D-07 EMaxC= 1.00D-01 BMatC= 6.52D-11 BMatP= 4.08D-14
 IDIUse=1 WtCom= 1.00D+00 WtEn= 0.00D+00
 Large coefficients: NSaved= 16 BigCof=    0.00 CofMax=   10.00 Det=-9.24D-17
 Inversion failed.  Reducing to 15 matrices.
 Coeff-Com:  0.252D-04-0.202D-03-0.729D-03 0.145D-01 0.882D-01-0.382D+00
 Coeff-Com:  0.239D+00 0.833D-01 0.836D-01 0.876D+00-0.503D+00 0.162D+00
 Coeff-Com: -0.229D+01 0.233D+01 0.299D+00
 Coeff:      0.252D-04-0.202D-03-0.729D-03 0.145D-01 0.882D-01-0.382D+00
 Coeff:      0.239D+00 0.833D-01 0.836D-01 0.876D+00-0.503D+00 0.162D+00
 Coeff:     -0.229D+01 0.233D+01 0.299D+00
 Gap=     0.160 Goal=   None    Shift=    0.000
 RMSDP=1.24D-07 MaxDP=4.30D-06 DE=-5.14D-11 OVMax= 6.60D-09

 Cycle  37  Pass 1  IDiag  1:
 RMSU=  1.22D-08    CP:  1.00D+00  3.00D+00  3.00D+00  1.39D+00  1.26D+00
                    CP:  3.00D+00  3.00D+00 -1.64D+00  5.02D-01 -1.41D+00
                    CP: -3.00D+00 -3.31D-01 -4.83D-01  3.00D+00 -7.18D-01
                    CP:  3.00D+00  1.73D+00
 E= -872.431206480295     Delta-E=       -0.000000000111 Rises=F Damp=F
 DIIS: error= 4.10D-07 at cycle  37 NSaved=  16.
 NSaved=16 IEnMin= 6 EnMin= -872.431206515036     IErMin=10 ErrMin= 2.24D-08
 ErrMax= 4.10D-07 EMaxC= 1.00D-01 BMatC= 6.52D-11 BMatP= 4.08D-14
 IDIUse=1 WtCom= 1.00D+00 WtEn= 0.00D+00
 Large coefficients: NSaved= 16 BigCof=    0.00 CofMax=   10.00 Det=-3.29D-16
 Inversion failed.  Reducing to 15 matrices.
 Coeff-Com:  0.377D-04-0.181D-03-0.381D-03 0.157D-01 0.105D+00-0.501D+00
 Coeff-Com:  0.253D+00-0.934D-02 0.289D+00 0.849D+00 0.762D-01 0.521D+00
 Coeff-Com: -0.383D+00-0.791D+00 0.577D+00
 Coeff:      0.377D-04-0.181D-03-0.381D-03 0.157D-01 0.105D+00-0.501D+00
 Coeff:      0.253D+00-0.934D-02 0.289D+00 0.849D+00 0.762D-01 0.521D+00
 Coeff:     -0.383D+00-0.791D+00 0.577D+00
 Gap=     0.160 Goal=   None    Shift=    0.000
 RMSDP=4.15D-07 MaxDP=1.25D-05 DE=-1.11D-10 OVMax= 3.50D-08

 Cycle  38  Pass 1  IDiag  1:
 RMSU=  2.02D-08    CP:  1.00D+00  3.00D+00  8.43D-01 -1.59D-01  2.07D-01
                    CP:  1.62D+00 -1.38D+00 -1.17D+00 -3.65D-02 -1.28D+00
                    CP: -3.00D+00 -6.59D-01 -9.21D-01 -1.72D+00  1.30D-01
                    CP:  1.65D+00  1.20D-01 -7.95D-02
 E= -872.431206479894     Delta-E=        0.000000000401 Rises=F Damp=F
 DIIS: error= 4.05D-07 at cycle  38 NSaved=  16.
 NSaved=16 IEnMin= 6 EnMin= -872.431206515036     IErMin=10 ErrMin= 2.24D-08
 ErrMax= 4.05D-07 EMaxC= 1.00D-01 BMatC= 6.45D-11 BMatP= 4.08D-14
 IDIUse=1 WtCom= 1.00D+00 WtEn= 0.00D+00
 Large coefficients: NSaved= 16 BigCof=    0.00 CofMax=   10.00 Det=-2.91D-16
 Inversion failed.  Reducing to 15 matrices.
 Coeff-Com:  0.215D-04-0.142D-03-0.125D-03 0.130D-01 0.693D-01-0.230D+00
 Coeff-Com:  0.133D+00-0.466D-02 0.170D+00 0.851D+00-0.344D+00-0.397D-01
 Coeff-Com: -0.774D-01 0.161D+00 0.299D+00
 Coeff:      0.215D-04-0.142D-03-0.125D-03 0.130D-01 0.693D-01-0.230D+00
 Coeff:      0.133D+00-0.466D-02 0.170D+00 0.851D+00-0.344D+00-0.397D-01
 Coeff:     -0.774D-01 0.161D+00 0.299D+00
 Gap=     0.160 Goal=   None    Shift=    0.000
 RMSDP=5.08D-07 MaxDP=1.50D-05 DE= 4.01D-10 OVMax= 4.89D-08

 Cycle  39  Pass 1  IDiag  1:
 RMSU=  1.15D-08    CP:  1.00D+00  3.00D+00  3.00D+00  1.97D+00  1.53D+00
                    CP: -8.05D-01 -1.25D+00  8.42D-01 -4.61D-01 -5.74D-01
                    CP: -3.00D+00 -3.06D-01 -2.79D-01  7.69D-01  5.13D-01
                    CP:  2.34D+00  5.36D-01  4.52D-01  1.16D-01
 E= -872.431206480254     Delta-E=       -0.000000000360 Rises=F Damp=F
 DIIS: error= 4.11D-07 at cycle  39 NSaved=  16.
 NSaved=16 IEnMin= 6 EnMin= -872.431206515036     IErMin=10 ErrMin= 2.24D-08
 ErrMax= 4.11D-07 EMaxC= 1.00D-01 BMatC= 6.54D-11 BMatP= 4.08D-14
 IDIUse=1 WtCom= 1.00D+00 WtEn= 0.00D+00
 Large coefficients: NSaved= 16 BigCof=    0.00 CofMax=   10.00 Det=-4.96D-16
 Inversion failed.  Reducing to 15 matrices.
 Coeff-Com:  0.309D-04-0.880D-04-0.123D-03 0.126D-01 0.648D-01-0.254D+00
 Coeff-Com:  0.151D+00 0.177D-01 0.138D+00 0.871D+00-0.918D-01 0.865D-01
 Coeff-Com:  0.153D+00 0.168D+00-0.317D+00
 Coeff:      0.309D-04-0.880D-04-0.123D-03 0.126D-01 0.648D-01-0.254D+00
 Coeff:      0.151D+00 0.177D-01 0.138D+00 0.871D+00-0.918D-01 0.865D-01
 Coeff:      0.153D+00 0.168D+00-0.317D+00
 Gap=     0.160 Goal=   None    Shift=    0.000
 RMSDP=1.22D-07 MaxDP=7.31D-06 DE=-3.60D-10 OVMax= 5.36D-09

 Cycle  40  Pass 1  IDiag  1:
 Restarting incremental Fock formation.
 E= -872.431206479918     Delta-E=        0.000000000336 Rises=F Damp=F
 DIIS: error= 4.00D-07 at cycle  40 NSaved=  16.
 NSaved=16 IEnMin= 6 EnMin= -872.431206515036     IErMin=10 ErrMin= 2.24D-08
 ErrMax= 4.00D-07 EMaxC= 1.00D-01 BMatC= 6.38D-11 BMatP= 4.08D-14
 IDIUse=1 WtCom= 1.00D+00 WtEn= 0.00D+00
 Large coefficients: NSaved= 16 BigCof=    0.00 CofMax=   10.00 Det=-7.36D-16
 Inversion failed.  Reducing to 15 matrices.
 Coeff-Com:  0.402D-04 0.309D-05 0.597D-04 0.107D-01 0.412D-01-0.352D-01
 Coeff-Com:  0.421D-01-0.278D-02 0.104D+00 0.840D+00-0.139D+00-0.129D-01
 Coeff-Com:  0.258D+00-0.298D+00 0.190D+00
 Coeff:      0.402D-04 0.309D-05 0.597D-04 0.107D-01 0.412D-01-0.352D-01
 Coeff:      0.421D-01-0.278D-02 0.104D+00 0.840D+00-0.139D+00-0.129D-01
 Coeff:      0.258D+00-0.298D+00 0.190D+00
 Gap=     0.160 Goal=   None    Shift=    0.000
 RMSDP=4.74D-07 MaxDP=1.33D-05 DE= 3.36D-10 OVMax= 4.88D-08

 Cycle  41  Pass 1  IDiag  1:
 RMSU=  3.30D-07    CP:  1.00D+00
 E= -872.431206479737     Delta-E=        0.000000000181 Rises=F Damp=F
 DIIS: error= 4.00D-07 at cycle  41 NSaved=  16.
 NSaved=16 IEnMin= 6 EnMin= -872.431206515036     IErMin=10 ErrMin= 2.24D-08
 ErrMax= 4.00D-07 EMaxC= 1.00D-01 BMatC= 6.41D-11 BMatP= 4.08D-14
 IDIUse=1 WtCom= 1.00D+00 WtEn= 0.00D+00
 Large coefficients: NSaved= 16 BigCof=    0.00 CofMax=   10.00 Det=-7.36D-16
 Inversion failed.  Reducing to 15 matrices.
 Coeff-Com:  0.398D-04 0.547D-05 0.700D-04 0.106D-01 0.405D-01-0.366D-01
 Coeff-Com:  0.438D-01 0.430D-03 0.922D-01 0.850D+00-0.132D+00 0.265D+00
 Coeff-Com: -0.325D+00 0.130D+00 0.611D-01
 Coeff:      0.398D-04 0.547D-05 0.700D-04 0.106D-01 0.405D-01-0.366D-01
 Coeff:      0.438D-01 0.430D-03 0.922D-01 0.850D+00-0.132D+00 0.265D+00
 Coeff:     -0.325D+00 0.130D+00 0.611D-01
 Gap=     0.160 Goal=   None    Shift=    0.000
 RMSDP=2.39D-08 MaxDP=7.85D-07 DE= 1.81D-10 OVMax= 1.88D-09

 Cycle  42  Pass 1  IDiag  1:
 RMSU=  1.13D-08    CP:  1.00D+00  1.03D+00
 E= -872.431206479779     Delta-E=       -0.000000000043 Rises=F Damp=F
 DIIS: error= 4.00D-07 at cycle  42 NSaved=  16.
 NSaved=16 IEnMin= 6 EnMin= -872.431206515036     IErMin=10 ErrMin= 2.24D-08
 ErrMax= 4.00D-07 EMaxC= 1.00D-01 BMatC= 6.41D-11 BMatP= 4.08D-14
 IDIUse=1 WtCom= 1.00D+00 WtEn= 0.00D+00
 Large coefficients: NSaved= 16 BigCof=    0.00 CofMax=   10.00 Det=-6.14D-17
 Inversion failed.  Reducing to 15 matrices.
 Coeff-Com:  0.396D-04-0.775D-05 0.360D-04 0.110D-01 0.465D-01-0.106D+00
 Coeff-Com:  0.806D-01 0.140D-01 0.828D-01 0.871D+00-0.370D-01 0.257D+00
 Coeff-Com: -0.392D+00-0.276D+00 0.448D+00
 Coeff:      0.396D-04-0.775D-05 0.360D-04 0.110D-01 0.465D-01-0.106D+00
 Coeff:      0.806D-01 0.140D-01 0.828D-01 0.871D+00-0.370D-01 0.257D+00
 Coeff:     -0.392D+00-0.276D+00 0.448D+00
 Gap=     0.160 Goal=   None    Shift=    0.000
 RMSDP=9.40D-08 MaxDP=3.54D-06 DE=-4.27D-11 OVMax= 8.10D-09

 Cycle  43  Pass 1  IDiag  1:
 RMSU=  1.07D-08    CP:  1.00D+00  8.51D-01  3.00D+00
 E= -872.431206479858     Delta-E=       -0.000000000078 Rises=F Damp=F
 DIIS: error= 4.01D-07 at cycle  43 NSaved=  16.
 NSaved=16 IEnMin= 6 EnMin= -872.431206515036     IErMin=10 ErrMin= 2.24D-08
 ErrMax= 4.01D-07 EMaxC= 1.00D-01 BMatC= 6.41D-11 BMatP= 4.08D-14
 IDIUse=1 WtCom= 1.00D+00 WtEn= 0.00D+00
 Large coefficients: NSaved= 16 BigCof=    0.00 CofMax=   10.00 Det=-2.35D-17
 Inversion failed.  Reducing to 15 matrices.
 Coeff-Com:  0.357D-04-0.382D-04-0.793D-05 0.113D-01 0.496D-01-0.971D-01
 Coeff-Com:  0.784D-01 0.147D-01 0.789D-01 0.865D+00-0.746D-01 0.174D+00
 Coeff-Com: -0.306D+00-0.186D+00 0.391D+00
 Coeff:      0.357D-04-0.382D-04-0.793D-05 0.113D-01 0.496D-01-0.971D-01
 Coeff:      0.784D-01 0.147D-01 0.789D-01 0.865D+00-0.746D-01 0.174D+00
 Coeff:     -0.306D+00-0.186D+00 0.391D+00
 Gap=     0.160 Goal=   None    Shift=    0.000
 RMSDP=4.50D-08 MaxDP=1.83D-06 DE=-7.82D-11 OVMax= 4.12D-09

 Cycle  44  Pass 1  IDiag  1:
 RMSU=  1.43D-08    CP:  1.00D+00  9.35D-01  2.84D+00  1.35D+00
 E= -872.431206479819     Delta-E=        0.000000000039 Rises=F Damp=F
 DIIS: error= 4.01D-07 at cycle  44 NSaved=  16.
 NSaved=16 IEnMin= 6 EnMin= -872.431206515036     IErMin=10 ErrMin= 2.24D-08
 ErrMax= 4.01D-07 EMaxC= 1.00D-01 BMatC= 6.42D-11 BMatP= 4.08D-14
 IDIUse=1 WtCom= 1.00D+00 WtEn= 0.00D+00
 Large coefficients: NSaved= 16 BigCof=    0.00 CofMax=   10.00 Det=-1.95D-16
 Inversion failed.  Reducing to 15 matrices.
 Coeff-Com:  0.417D-04 0.119D-04 0.832D-04 0.106D-01 0.405D-01-0.619D-01
 Coeff-Com:  0.649D-01 0.239D-01 0.487D-01 0.874D+00-0.142D+00 0.293D+00
 Coeff-Com: -0.357D+00-0.571D+00 0.777D+00
 Coeff:      0.417D-04 0.119D-04 0.832D-04 0.106D-01 0.405D-01-0.619D-01
 Coeff:      0.649D-01 0.239D-01 0.487D-01 0.874D+00-0.142D+00 0.293D+00
 Coeff:     -0.357D+00-0.571D+00 0.777D+00
 Gap=     0.160 Goal=   None    Shift=    0.000
 RMSDP=1.04D-07 MaxDP=3.18D-06 DE= 3.87D-11 OVMax= 9.67D-09

 Cycle  45  Pass 1  IDiag  1:
 RMSU=  2.18D-08    CP:  1.00D+00  1.13D+00  3.00D+00  1.26D+00  3.41D-01
 E= -872.431206479916     Delta-E=       -0.000000000097 Rises=F Damp=F
 DIIS: error= 4.01D-07 at cycle  45 NSaved=  16.
 NSaved=16 IEnMin= 6 EnMin= -872.431206515036     IErMin=10 ErrMin= 2.24D-08
 ErrMax= 4.01D-07 EMaxC= 1.00D-01 BMatC= 6.42D-11 BMatP= 4.08D-14
 IDIUse=1 WtCom= 1.00D+00 WtEn= 0.00D+00
 Large coefficients: NSaved= 16 BigCof=    0.00 CofMax=   10.00 Det=-1.38D-16
 Inversion failed.  Reducing to 15 matrices.
 Coeff-Com:  0.446D-04 0.434D-04 0.172D-03 0.101D-01 0.335D-01-0.151D-01
 Coeff-Com:  0.386D-01 0.125D-01 0.624D-01 0.859D+00-0.251D+00 0.342D+00
 Coeff-Com: -0.312D+00 0.700D+00-0.479D+00
 Coeff:      0.446D-04 0.434D-04 0.172D-03 0.101D-01 0.335D-01-0.151D-01
 Coeff:      0.386D-01 0.125D-01 0.624D-01 0.859D+00-0.251D+00 0.342D+00
 Coeff:     -0.312D+00 0.700D+00-0.479D+00
 Gap=     0.160 Goal=   None    Shift=    0.000
 RMSDP=6.28D-08 MaxDP=3.01D-06 DE=-9.69D-11 OVMax= 2.52D-09

 Cycle  46  Pass 1  IDiag  1:
 RMSU=  1.40D-08    CP:  1.00D+00  1.21D+00  1.19D+00  2.75D-01  8.66D-01
                    CP:  7.65D-01
 E= -872.431206479678     Delta-E=        0.000000000237 Rises=F Damp=F
 DIIS: error= 4.00D-07 at cycle  46 NSaved=  16.
 NSaved=16 IEnMin= 6 EnMin= -872.431206515036     IErMin=10 ErrMin= 2.24D-08
 ErrMax= 4.00D-07 EMaxC= 1.00D-01 BMatC= 6.41D-11 BMatP= 4.08D-14
 IDIUse=1 WtCom= 1.00D+00 WtEn= 0.00D+00
 Large coefficients: NSaved= 16 BigCof=    0.00 CofMax=   10.00 Det=-3.29D-16
 Inversion failed.  Reducing to 15 matrices.
 Coeff-Com:  0.368D-04-0.395D-04-0.381D-04 0.115D-01 0.527D-01-0.137D+00
 Coeff-Com:  0.980D-01 0.191D-01 0.852D-01 0.871D+00 0.139D-02 0.188D+00
 Coeff-Com: -0.368D+00 0.245D+00-0.673D-01
 Coeff:      0.368D-04-0.395D-04-0.381D-04 0.115D-01 0.527D-01-0.137D+00
 Coeff:      0.980D-01 0.191D-01 0.852D-01 0.871D+00 0.139D-02 0.188D+00
 Coeff:     -0.368D+00 0.245D+00-0.673D-01
 Gap=     0.160 Goal=   None    Shift=    0.000
 RMSDP=2.06D-07 MaxDP=7.18D-06 DE= 2.37D-10 OVMax= 1.82D-08

 Cycle  47  Pass 1  IDiag  1:
 RMSU=  2.82D-09    CP:  1.00D+00  7.87D-01  3.00D+00  1.84D+00  6.55D-02
                    CP:  1.55D-01 -5.15D-01
 E= -872.431206479922     Delta-E=       -0.000000000244 Rises=F Damp=F
 DIIS: error= 4.02D-07 at cycle  47 NSaved=  16.
 NSaved=16 IEnMin= 6 EnMin= -872.431206515036     IErMin=10 ErrMin= 2.24D-08
 ErrMax= 4.02D-07 EMaxC= 1.00D-01 BMatC= 6.42D-11 BMatP= 4.08D-14
 IDIUse=1 WtCom= 1.00D+00 WtEn= 0.00D+00
 Large coefficients: NSaved= 16 BigCof=    0.00 CofMax=   10.00 Det=-2.07D-16
 Inversion failed.  Reducing to 15 matrices.
 Coeff-Com:  0.376D-04-0.254D-04 0.364D-04 0.112D-01 0.469D-01-0.811D-01
 Coeff-Com:  0.712D-01 0.146D-01 0.792D-01 0.859D+00-0.146D+00 0.179D+00
 Coeff-Com: -0.271D+00-0.130D+00 0.367D+00
 Coeff:      0.376D-04-0.254D-04 0.364D-04 0.112D-01 0.469D-01-0.811D-01
 Coeff:      0.712D-01 0.146D-01 0.792D-01 0.859D+00-0.146D+00 0.179D+00
 Coeff:     -0.271D+00-0.130D+00 0.367D+00
 Gap=     0.160 Goal=   None    Shift=    0.000
 RMSDP=1.19D-07 MaxDP=4.68D-06 DE=-2.44D-10 OVMax= 1.10D-08

 Cycle  48  Pass 1  IDiag  1:
 RMSU=  5.82D-09    CP:  1.00D+00  1.03D+00  2.28D+00  1.25D+00  1.34D+00
                    CP:  2.20D-01  3.74D-02  1.31D+00
 E= -872.431206479839     Delta-E=        0.000000000084 Rises=F Damp=F
 DIIS: error= 4.01D-07 at cycle  48 NSaved=  16.
 NSaved=16 IEnMin= 6 EnMin= -872.431206515036     IErMin=10 ErrMin= 2.24D-08
 ErrMax= 4.01D-07 EMaxC= 1.00D-01 BMatC= 6.42D-11 BMatP= 4.08D-14
 IDIUse=1 WtCom= 1.00D+00 WtEn= 0.00D+00
 Large coefficients: NSaved= 16 BigCof=    0.00 CofMax=   10.00 Det=-3.62D-16
 Inversion failed.  Reducing to 15 matrices.
 Coeff-Com:  0.369D-04-0.211D-04 0.305D-04 0.110D-01 0.456D-01-0.761D-01
 Coeff-Com:  0.684D-01 0.153D-01 0.679D-01 0.869D+00-0.941D-01 0.230D+00
 Coeff-Com: -0.342D+00 0.113D+00 0.919D-01
 Coeff:      0.369D-04-0.211D-04 0.305D-04 0.110D-01 0.456D-01-0.761D-01
 Coeff:      0.684D-01 0.153D-01 0.679D-01 0.869D+00-0.941D-01 0.230D+00
 Coeff:     -0.342D+00 0.113D+00 0.919D-01
 Gap=     0.160 Goal=   None    Shift=    0.000
 RMSDP=2.52D-08 MaxDP=1.19D-06 DE= 8.37D-11 OVMax= 1.58D-09

 Cycle  49  Pass 1  IDiag  1:
 RMSU=  1.41D-09    CP:  1.00D+00  1.03D+00  3.00D+00  8.43D-01  6.25D-01
                    CP:  2.23D-01 -2.04D-02  2.75D-01  3.41D-01
 E= -872.431206479869     Delta-E=       -0.000000000031 Rises=F Damp=F
 DIIS: error= 4.01D-07 at cycle  49 NSaved=  16.
 NSaved=16 IEnMin= 6 EnMin= -872.431206515036     IErMin=10 ErrMin= 2.24D-08
 ErrMax= 4.01D-07 EMaxC= 1.00D-01 BMatC= 6.42D-11 BMatP= 4.08D-14
 IDIUse=1 WtCom= 1.00D+00 WtEn= 0.00D+00
 Large coefficients: NSaved= 16 BigCof=    0.00 CofMax=   10.00 Det=-1.62D-16
 Inversion failed.  Reducing to 15 matrices.
 Coeff-Com:  0.347D-04-0.441D-04-0.329D-04 0.113D-01 0.494D-01-0.979D-01
 Coeff-Com:  0.813D-01 0.219D-01 0.654D-01 0.870D+00-0.548D-01 0.257D+00
 Coeff-Com: -0.386D+00 0.511D+00-0.329D+00
 Coeff:      0.347D-04-0.441D-04-0.329D-04 0.113D-01 0.494D-01-0.979D-01
 Coeff:      0.813D-01 0.219D-01 0.654D-01 0.870D+00-0.548D-01 0.257D+00
 Coeff:     -0.386D+00 0.511D+00-0.329D+00
 Gap=     0.160 Goal=   None    Shift=    0.000
 RMSDP=2.98D-08 MaxDP=8.70D-07 DE=-3.09D-11 OVMax= 3.21D-09

 Cycle  50  Pass 1  IDiag  1:
 RMSU=  6.85D-09    CP:  1.00D+00  9.76D-01  3.00D+00  3.39D-01  3.64D-01
                    CP:  4.73D-01  4.45D-02 -7.64D-02  3.59D-01  3.00D+00
 E= -872.431206479860     Delta-E=        0.000000000009 Rises=F Damp=F
 DIIS: error= 4.01D-07 at cycle  50 NSaved=  16.
 NSaved=16 IEnMin= 6 EnMin= -872.431206515036     IErMin=10 ErrMin= 2.24D-08
 ErrMax= 4.01D-07 EMaxC= 1.00D-01 BMatC= 6.42D-11 BMatP= 4.08D-14
 IDIUse=1 WtCom= 1.00D+00 WtEn= 0.00D+00
 Large coefficients: NSaved= 16 BigCof=    0.00 CofMax=   10.00 Det=-3.49D-17
 Inversion failed.  Reducing to 15 matrices.
 Coeff-Com:  0.376D-04-0.361D-04-0.453D-04 0.115D-01 0.517D-01-0.118D+00
 Coeff-Com:  0.901D-01 0.196D-01 0.819D-01 0.864D+00-0.309D-02 0.177D+00
 Coeff-Com: -0.376D+00 0.694D+00-0.493D+00
 Coeff:      0.376D-04-0.361D-04-0.453D-04 0.115D-01 0.517D-01-0.118D+00
 Coeff:      0.901D-01 0.196D-01 0.819D-01 0.864D+00-0.309D-02 0.177D+00
 Coeff:     -0.376D+00 0.694D+00-0.493D+00
 Gap=     0.160 Goal=   None    Shift=    0.000
 RMSDP=2.67D-08 MaxDP=8.75D-07 DE= 9.09D-12 OVMax= 1.54D-09

 Cycle  51  Pass 1  IDiag  1:
 RMSU=  6.69D-09    CP:  1.00D+00  9.47D-01  3.00D+00  1.26D+00  5.97D-01
                    CP:  2.13D-01 -1.45D-01  2.10D+00  4.20D-02  2.69D+00
                    CP:  3.27D-01
 E= -872.431206479875     Delta-E=       -0.000000000015 Rises=F Damp=F
 DIIS: error= 4.02D-07 at cycle  51 NSaved=  16.
 NSaved=16 IEnMin= 6 EnMin= -872.431206515036     IErMin=10 ErrMin= 2.24D-08
 ErrMax= 4.02D-07 EMaxC= 1.00D-01 BMatC= 6.42D-11 BMatP= 4.08D-14
 IDIUse=1 WtCom= 1.00D+00 WtEn= 0.00D+00
 Large coefficients: NSaved= 16 BigCof=    0.00 CofMax=   10.00 Det=-1.10D-16
 Inversion failed.  Reducing to 15 matrices.
 Coeff-Com:  0.318D-04-0.519D-04 0.473D-04 0.113D-01 0.481D-01-0.972D-01
 Coeff-Com:  0.806D-01 0.224D-01 0.573D-01 0.879D+00-0.138D+00 0.300D+00
 Coeff-Com: -0.364D+00-0.283D+00 0.483D+00
 Coeff:      0.318D-04-0.519D-04 0.473D-04 0.113D-01 0.481D-01-0.972D-01
 Coeff:      0.806D-01 0.224D-01 0.573D-01 0.879D+00-0.138D+00 0.300D+00
 Coeff:     -0.364D+00-0.283D+00 0.483D+00
 Gap=     0.160 Goal=   None    Shift=    0.000
 RMSDP=3.60D-08 MaxDP=1.25D-06 DE=-1.46D-11 OVMax= 1.51D-09

 Cycle  52  Pass 1  IDiag  1:
 RMSU=  1.49D-08    CP:  1.00D+00  9.62D-01  2.65D+00  9.27D-01  6.68D-01
                    CP:  3.15D-01  4.83D-01  9.36D-01  1.72D+00  2.00D-01
                    CP:  4.00D-01 -5.85D-01
 E= -872.431206479789     Delta-E=        0.000000000085 Rises=F Damp=F
 DIIS: error= 4.00D-07 at cycle  52 NSaved=  16.
 NSaved=16 IEnMin= 6 EnMin= -872.431206515036     IErMin=10 ErrMin= 2.24D-08
 ErrMax= 4.00D-07 EMaxC= 1.00D-01 BMatC= 6.42D-11 BMatP= 4.08D-14
 IDIUse=1 WtCom= 1.00D+00 WtEn= 0.00D+00
 Large coefficients: NSaved= 16 BigCof=    0.00 CofMax=   10.00 Det=-1.24D-16
 Inversion failed.  Reducing to 15 matrices.
 Coeff-Com:  0.386D-04-0.824D-05 0.454D-04 0.108D-01 0.444D-01-0.801D-01
 Coeff-Com:  0.699D-01 0.155D-01 0.668D-01 0.874D+00-0.871D-01 0.249D+00
 Coeff-Com: -0.354D+00 0.983D-01 0.920D-01
 Coeff:      0.386D-04-0.824D-05 0.454D-04 0.108D-01 0.444D-01-0.801D-01
 Coeff:      0.699D-01 0.155D-01 0.668D-01 0.874D+00-0.871D-01 0.249D+00
 Coeff:     -0.354D+00 0.983D-01 0.920D-01
 Gap=     0.160 Goal=   None    Shift=    0.000
 RMSDP=2.87D-08 MaxDP=9.66D-07 DE= 8.55D-11 OVMax= 1.51D-09

 Cycle  53  Pass 1  IDiag  1:
 RMSU=  1.12D-09    CP:  1.00D+00  9.80D-01  3.00D+00  8.44D-01  4.52D-01
                    CP:  2.12D-01  5.32D-02  1.73D-01  2.44D-01  1.27D+00
                    CP: -1.40D-01 -2.23D-01  1.06D-01
 E= -872.431206479824     Delta-E=       -0.000000000035 Rises=F Damp=F
 DIIS: error= 4.01D-07 at cycle  53 NSaved=  16.
 NSaved=16 IEnMin= 6 EnMin= -872.431206515036     IErMin=10 ErrMin= 2.24D-08
 ErrMax= 4.01D-07 EMaxC= 1.00D-01 BMatC= 6.42D-11 BMatP= 4.08D-14
 IDIUse=1 WtCom= 1.00D+00 WtEn= 0.00D+00
 Large coefficients: NSaved= 16 BigCof=    0.00 CofMax=   10.00 Det=-2.00D-16
 Inversion failed.  Reducing to 15 matrices.
 Coeff-Com:  0.352D-04-0.264D-04 0.614D-04 0.109D-01 0.451D-01-0.732D-01
 Coeff-Com:  0.665D-01 0.145D-01 0.641D-01 0.873D+00-0.999D-01 0.259D+00
 Coeff-Com: -0.359D+00-0.133D+00 0.332D+00
 Coeff:      0.352D-04-0.264D-04 0.614D-04 0.109D-01 0.451D-01-0.732D-01
 Coeff:      0.665D-01 0.145D-01 0.641D-01 0.873D+00-0.999D-01 0.259D+00
 Coeff:     -0.359D+00-0.133D+00 0.332D+00
 Gap=     0.160 Goal=   None    Shift=    0.000
 RMSDP=2.32D-08 MaxDP=6.81D-07 DE=-3.46D-11 OVMax= 2.55D-09

 Cycle  54  Pass 1  IDiag  1:
 RMSU=  2.54D-09    CP:  1.00D+00  1.03D+00  3.00D+00  1.23D+00  3.58D-01
                    CP:  1.76D-01  3.09D-02 -1.62D-01  2.36D-01 -1.06D+00
                    CP: -9.85D-02 -9.73D-02  1.44D-01 -1.77D-01
 E= -872.431206479860     Delta-E=       -0.000000000036 Rises=F Damp=F
 DIIS: error= 4.01D-07 at cycle  54 NSaved=  16.
 NSaved=16 IEnMin= 6 EnMin= -872.431206515036     IErMin=10 ErrMin= 2.24D-08
 ErrMax= 4.01D-07 EMaxC= 1.00D-01 BMatC= 6.42D-11 BMatP= 4.08D-14
 IDIUse=1 WtCom= 1.00D+00 WtEn= 0.00D+00
 Large coefficients: NSaved= 16 BigCof=    0.00 CofMax=   10.00 Det=-1.61D-16
 Inversion failed.  Reducing to 15 matrices.
 Coeff-Com:  0.293D-04-0.497D-04 0.110D-03 0.109D-01 0.433D-01-0.475D-01
 Coeff-Com:  0.551D-01 0.161D-01 0.419D-01 0.881D+00-0.169D+00 0.341D+00
 Coeff-Com: -0.361D+00 0.758D+00-0.570D+00
 Coeff:      0.293D-04-0.497D-04 0.110D-03 0.109D-01 0.433D-01-0.475D-01
 Coeff:      0.551D-01 0.161D-01 0.419D-01 0.881D+00-0.169D+00 0.341D+00
[...]
 2323,0.00007112,-0.00006799,0.00001201,0.00007774,0.00009921,-0.000030
 39,0.00002181,-0.00000486,-0.00000903,0.00002438,-0.00004424,0.0000178
 2,-0.00000313,-0.00001572,-0.00003721,0.00001736,0.00000056,0.00000377
 ,-0.00000001,-0.00000384,-0.00452795,0.00209591,0.00089520,0.00088961,
 0.02715105,-0.00825702,-0.00122987,-0.00020175,0.00006960,-0.05936655,
 0.02974199,-0.00593924,0.00076576,-0.00038314,-0.00053988,-0.00344801,
 -0.00180054,0.00205131,0.00004040,-0.00001615,-0.00010379,0.00570375,-
 0.02485413,0.00737006,0.06003668,0.00000853,0.00003208,0.00001442,0.00
 000957,-0.00001270,-0.00005720,-0.00033827,-0.00040552,0.00017266,0.00
 018438,0.00003676,0.00001061,-0.00001469,-0.00004116,-0.00002658,0.000
 03102,-0.00001902,-0.00000458,-0.00003880,-0.00000168,-0.00001177,-0.0
 0002102,-0.00000843,0.00000836,0.00001736,-0.00000821,0.00000171,-0.00
 000342,-0.00000027,0.00000076,0.00246211,0.00173104,0.00124577,-0.0015
 1061,-0.00786287,0.00387309,-0.00006595,0.00044678,-0.00043310,0.02983
 433,-0.31408483,0.08202115,-0.00021440,0.00043044,-0.00130607,-0.00274
 555,0.00124350,0.00222980,-0.00002167,-0.00011549,-0.00018938,0.003774
 63,-0.01083944,0.00399601,-0.03151995,0.32973795,-0.00001178,0.0000005
 0,0.00003348,-0.00004329,-0.00002429,-0.00006147,-0.00001486,-0.000034
 70,0.00013130,-0.00000105,0.00006640,-0.00010711,-0.00005619,-0.000017
 04,0.00001024,0.00000257,0.00001858,0.00000370,-0.00003138,0.00005213,
 0.00001006,-0.00002384,-0.00001958,-0.00001226,-0.00000055,-0.00000171
 ,0.00000985,0.00000204,0.00000318,-0.00000787,0.00105118,0.00122658,0.
 00639228,0.00084223,-0.00015748,0.00357152,0.00016390,-0.00048322,-0.0
 0084741,-0.00566288,0.08231509,-0.06216804,-0.00069887,-0.00133938,-0.
 00347163,0.00210896,0.00226670,0.00601330,-0.00009502,-0.00016220,-0.0
 0062746,-0.00174788,0.00753352,0.00159928,0.00496138,-0.09034624,0.053
 01501,0.00005078,-0.00003043,-0.00000620,-0.00003909,-0.00003370,-0.00
 002154,-0.00007816,0.00005903,-0.00004712,0.00007492,-0.00000794,-0.00
 006131,-0.00004557,0.00000230,0.00003708,0.00004077,0.00002823,0.00000
 622,0.00000551,0.00000692,0.00002514,-0.00000039,0.00000677,0.00000611
 ,0.00000377,-0.00000342,-0.00000204,-0.00000241,0.00000238,0.00000020,
 0.00004153,-0.00077913,0.00000649,-0.00150572,-0.00280979,0.00213679,0
 .00173869,-0.00029206,0.00060455,-0.01370513,0.01091074,-0.00081024,-0
 .00065269,0.00050975,-0.00010958,0.00017494,0.00117639,0.00024099,0.00
 020092,-0.00005963,0.00010145,-0.30006933,0.11169794,0.00259608,0.0008
 3634,-0.00018610,-0.00064913,0.31623655,0.00009082,-0.00004108,-0.0000
 0686,-0.00008211,0.00000914,-0.00004044,0.00001371,0.00009794,-0.00019
 959,0.00005745,-0.00008975,-0.00002222,-0.00009472,0.00002149,-0.00003
 384,0.00002340,0.00007305,0.00004166,0.00000962,0.00000941,0.00002636,
 0.00000518,0.00003744,0.00003624,-0.00000002,-0.00000027,-0.00000318,0
 .00000239,0.00000324,0.00000813,-0.00067561,-0.00076336,-0.00009988,-0
 .00294531,-0.00102409,0.00300831,-0.00068042,-0.00476522,0.00318468,-0
 .01613398,0.01117021,0.00018709,-0.00083463,0.00037964,-0.00005975,0.0
 2733285,-0.00627087,-0.00047670,0.00145709,-0.00024438,0.00005261,0.10
 937417,-0.10341619,0.00457066,0.00017007,0.00034007,-0.00139945,-0.117
 50669,0.10306094,0.00013590,-0.00015016,-0.00005560,-0.00020374,0.0000
 7757,0.00001651,-0.00001157,-0.00015122,-0.00057432,0.00019824,-0.0000
 6810,0.00003216,-0.00022011,-0.00004050,-0.00009050,0.00005066,0.00018
 098,0.00006053,-0.00003307,-0.00003144,0.00002153,-0.00001639,-0.00005
 564,0.00002606,0.00000384,-0.00000076,-0.00000787,-0.00000020,-0.00000
 813,0.00002386,0.00009041,0.00010017,-0.00115476,0.00207346,0.00279385
 ,0.00605497,0.00059558,0.00297580,0.00411561,0.00735937,-0.00340432,0.
 00472672,0.00036583,-0.00024131,-0.00015607,-0.00763266,0.00305506,0.0
 0503742,-0.00038495,0.00032368,0.00061452,0.00331633,0.00436675,-0.039
 95480,-0.00074935,-0.00140066,-0.00365637,-0.00479836,-0.00706213,0.02
 846647,-0.10951274,-0.00247643,-0.00466270,-0.03801467,-0.01700493,-0.
 01022972,-0.00216514,0.00826038,0.00083780,-0.00140667,0.00223140,0.00
 046170,0.00762665,0.00540831,0.00157265,0.00378144,-0.02455201,-0.0066
 7514,0.00040233,-0.00038643,0.00054298,-0.00038670,0.00013064,0.000249
 40,0.00095011,0.00090226,0.00032867,-0.00166718,0.00401349,0.00151368,
 -0.00156306,-0.00033971,-0.00033694,0.00037046,-0.00017038,0.00012171,
 0.00021496,0.00002970,-0.00016150,0.00019084,0.00022136,-0.00008463,-0
 .00009492,0.00027769,-0.00021625,0.00014039,0.00016558,0.00003415,-0.0
 0031029,-0.00017920,0.00013686,0.00036271,-0.00038746,0.00005391,0.000
 06951,-0.00007307,0.00001216,-0.00003021,-0.00000361,0.00000863,0.7363
 2751,-0.00208071,-0.10606896,-0.00776364,-0.01112604,0.01690171,0.0047
 8601,0.00835779,0.00374464,-0.00053227,0.00254491,-0.00352557,-0.00048
 987,0.00465311,-0.00596935,-0.00374142,-0.03076049,-0.01986534,-0.0100
 1396,0.00339374,-0.00328404,0.00076968,0.00007329,-0.00046882,0.000355
 30,-0.00127194,-0.00020658,-0.00044092,0.00049555,-0.00101936,0.001039
 71,-0.00065115,0.00136538,0.00011156,0.00081618,0.00026047,-0.00036885
 ,0.00097017,-0.00035575,-0.00011383,0.00002899,-0.00014366,-0.00008496
 ,0.00007767,0.00007906,0.00023527,-0.00017674,0.00009154,0.00009683,-0
 .00030515,-0.00014888,0.00013716,0.00037986,-0.00026544,0.00004094,0.0
 0015749,-0.00008311,0.00006241,-0.00002715,-0.00001342,0.00002507,-0.1
 5999132,0.79536018,-0.00386034,-0.00824677,-0.08538151,-0.00877349,0.0
 0322661,-0.00154274,0.00113617,-0.00039786,0.00884949,0.00094566,-0.00
 037292,-0.00151780,0.00087278,-0.00366702,0.00774933,-0.00862694,-0.00
 863847,-0.00520634,0.00167869,0.00040330,-0.00412889,0.00015147,0.0002
 7611,-0.00115038,-0.00032792,-0.00014418,0.00062864,0.00050931,0.00160
 452,-0.00377698,-0.00054642,0.00010706,0.00074598,0.00028074,0.0000572
 8,-0.00022864,0.00017691,-0.00008635,-0.00017333,0.00005392,0.00002907
 ,0.00000205,-0.00007480,0.00008213,0.00005486,-0.00009556,0.00007819,0
 .00004811,-0.00013607,-0.00002665,0.00004163,0.00019151,-0.00017546,0.
 00001277,0.00005371,-0.00004616,0.00002034,-0.00002328,-0.00001048,0.0
 0000034,0.02749976,0.14340874,0.27674817,0.01209451,-0.02893408,-0.009
 65617,-0.00784052,-0.00211562,-0.00179752,0.00251093,-0.00042658,0.000
 31271,0.00015404,-0.00165368,-0.00047645,-0.00043720,-0.00232132,-0.00
 064470,-0.00502542,0.00148581,-0.00062685,-0.00144133,-0.00410627,-0.0
 0146514,0.00006689,-0.00027342,-0.00008455,-0.00049354,-0.00030891,-0.
 00011470,0.00004729,-0.00092184,-0.00033527,0.00042283,-0.00019196,-0.
 00000040,-0.00010824,0.00005185,-0.00007926,-0.00005016,0.00009802,-0.
 00000776,-0.00004514,-0.00008340,0.00005210,0.00004786,-0.00013673,0.0
 0009865,-0.00011657,-0.00006429,0.00004780,0.00007236,0.00003302,-0.00
 004994,-0.00013353,0.00011090,-0.00000916,-0.00003159,0.00002664,-0.00
 000532,0.00000881,-0.00000548,-0.00000764,-0.13158542,0.03568766,0.002
 25255,0.14393429,-0.01429250,-0.05194645,-0.02330319,0.00790021,-0.002
 47998,-0.00027788,-0.00157339,-0.00122115,-0.00025110,0.00044525,0.000
 11744,0.00014536,-0.00206097,-0.00160273,-0.00045287,-0.00604225,0.003
 44989,-0.00072856,-0.00294349,0.00059817,-0.00015258,-0.00013622,0.000
 19870,-0.00002693,-0.00058177,-0.00039196,-0.00008324,0.00058981,0.001
 48386,0.00047372,0.00082454,-0.00032833,-0.00007880,-0.00056135,-0.000
 13922,0.00018875,-0.00041963,0.00012209,0.00008982,-0.00000955,0.00008
 131,0.00007743,-0.00006027,-0.00010096,-0.00015181,0.00013603,-0.00000
 229,-0.00007177,0.00017963,0.00007554,-0.00009020,-0.00023702,0.000153
 60,-0.00002158,-0.00010329,0.00004924,-0.00004055,0.00001481,0.0000023
 9,-0.00002250,0.03744491,-0.48820464,-0.11604963,-0.08604545,0.6013210
 2,-0.00537127,-0.02539934,0.01119873,0.00110470,-0.00149267,0.00103642
 ,-0.00002678,-0.00012610,-0.00081123,0.00012453,-0.00024358,0.00013875
 ,-0.00044637,-0.00043891,-0.00147921,-0.00294486,0.00030082,0.00255243
 ,-0.00112172,-0.00036339,-0.00033462,-0.00004395,-0.00001193,0.0000879
 6,-0.00019008,-0.00003579,-0.00045734,0.00012286,0.00017712,0.00051461
 ,0.00026678,-0.00015505,0.00001296,-0.00007078,0.00002274,0.00004627,-
 0.00013797,0.00004111,0.00004327,-0.00004943,-0.00001224,0.00004209,0.
 00003452,-0.00005141,-0.00004564,0.00001643,-0.00003772,-0.00001617,0.
 00005963,0.00001489,-0.00003491,-0.00009095,0.00008422,-0.00000951,-0.
 00002532,0.00001818,-0.00002098,0.00000351,-0.00000066,-0.00001171,0.0
 0291202,-0.11652289,-0.11022646,-0.00831219,0.15673373,0.07291557,-0.0
 6572138,0.01147326,-0.00908253,0.00092867,-0.00783829,-0.00289310,-0.0
 0252172,-0.00140325,-0.00070952,-0.00056760,0.00082328,0.00023614,-0.0
 0130530,-0.00047838,-0.00026126,-0.00152097,0.00580810,0.00131896,0.00
 145856,0.00022605,0.00011331,0.00009175,-0.00016055,-0.00008792,-0.000
 16551,-0.00023755,-0.00010639,-0.00168872,-0.00267280,-0.00103488,0.00
 025819,-0.00103206,-0.00006399,-0.00013250,0.00005907,-0.00006690,-0.0
 0038581,0.00027669,0.00002519,-0.00013490,-0.00011797,0.00003568,0.000
 07639,-0.00010907,0.00015741,-0.00016850,-0.00021444,0.00008332,0.0001
 6284,0.00008877,-0.00007381,-0.00020768,0.00023701,-0.00004508,-0.0000
 3563,0.00004909,0.00000523,0.00002379,0.00000746,0.00000339,-0.4636858
 8,0.14856308,-0.01337349,-0.01205337,0.06763699,0.01420920,0.54731088,
 -0.00327063,0.01866230,-0.00071657,-0.00061833,-0.00195509,-0.00170929
 ,-0.00126996,0.00053590,0.00044011,-0.00151531,0.00067215,-0.00001520,
 0.00091366,0.00219749,0.00098139,-0.00410612,-0.00776590,-0.00335803,-
 0.00143366,0.00030271,-0.00020546,-0.00024086,0.00019350,-0.00000901,0
 .00013316,0.00001347,0.00002016,-0.00376945,0.00095913,-0.00026377,0.0
 0018070,-0.00029551,0.00002208,-0.00024588,-0.00009591,0.00010655,-0.0
 0022732,0.00010967,0.00001810,0.00001063,0.00005510,0.00004790,-0.0000
 2440,-0.00002582,-0.00010673,0.00006173,0.00000317,-0.00004099,0.00005
 886,0.00002506,-0.00002810,-0.00009865,0.00004740,-0.00000343,-0.00004
 664,0.00001995,-0.00002370,0.00000516,0.00000013,-0.00001280,0.1466598
 7,-0.18805297,-0.01135846,0.09002024,-0.06130423,-0.01253230,-0.221119
 80,0.23567409,-0.01384271,0.00144032,0.01789432,-0.00044328,-0.0026415
 2,0.00188625,-0.00058029,0.00031996,-0.00120152,-0.00058890,0.00026313
 ,0.00014689,0.00020516,0.00080640,-0.00041198,-0.00159054,-0.00193557,
 0.00038336,-0.00025005,-0.00001741,0.00045114,-0.00007251,0.00001651,0
 .00006086,0.00001302,-0.00003575,0.00000714,-0.00138785,-0.00007967,-0
 .00026813,0.00015338,-0.00006940,-0.00042003,-0.00013615,-0.00002456,0
 .00005043,-0.00003619,0.00005137,0.00003602,-0.00001354,-0.00000029,0.
 00002812,0.00000640,-0.00002772,-0.00001680,0.00000938,-0.00001406,0.0
 0000827,0.00003869,0.00000498,-0.00002490,-0.00007410,0.00005724,-0.00
 000574,-0.00001848,0.00001356,-0.00000810,0.00000835,0.00000172,-0.000
 00425,-0.01396781,-0.01097503,-0.08156578,0.02093119,-0.01591695,0.024
 85281,0.01164352,0.02873961,0.03811892,0.00014042,0.00016557,-0.000034
 17,0.00021492,0.00002974,0.00016140,-0.00156282,-0.00033980,0.00033752
 ,0.00037035,-0.00017037,-0.00012185,0.00019086,0.00022133,0.00008457,0
 .00036264,-0.00038742,-0.00005400,-0.00031028,-0.00017921,-0.00013676,
 -0.00009484,0.00027767,0.00021626,0.00006949,-0.00007305,-0.00001216,-
 0.00003020,-0.00000361,-0.00000861,-0.00216556,0.00826050,-0.00083555,
 -0.00140709,0.00223149,-0.00046184,-0.03801218,-0.01700549,0.01024002,
 0.00762606,0.00540892,-0.00157283,-0.00038679,0.00013056,-0.00024955,-
 0.10951049,-0.00247215,0.00466796,0.00040182,-0.00038669,-0.00054407,0
 .00378529,-0.02454962,0.00667416,0.00095008,0.00090232,-0.00032881,-0.
 00166764,0.00401295,-0.00151437,-0.00143739,-0.00057849,-0.00040838,0.
 00051569,0.00033221,0.00019320,0.00090762,0.00006524,0.00016658,0.7362
 6625,-0.00017675,0.00009153,-0.00009679,0.00097017,-0.00035571,0.00011
 362,-0.00065114,0.00136531,-0.00011143,0.00081625,0.00026051,0.0003686
 5,0.00002901,-0.00014369,0.00008496,0.00037984,-0.00026543,-0.00004103
 ,-0.00030517,-0.00014889,-0.00013708,0.00007761,0.00007904,-0.00023530
 ,0.00015748,-0.00008310,-0.00006244,-0.00002716,-0.00001343,-0.0000250
 6,0.00835791,0.00374472,0.00053048,0.00254498,-0.00352553,0.00048935,-
 0.01112709,0.01690161,-0.00478402,0.00465393,-0.00596917,0.00374094,0.
 00007319,-0.00046886,-0.00035533,-0.00207698,-0.10606676,0.00776439,0.
 00339340,-0.00328426,-0.00077062,-0.03075839,-0.01986529,0.01002270,-0
 .00127181,-0.00020657,0.00044123,0.00049536,-0.00101938,-0.00103999,-0
 .00057850,0.00001375,-0.00011028,0.00025478,-0.00007413,0.00005015,0.0
 0051491,-0.00006671,0.00008111,-0.16000805,0.79537366,0.00009553,-0.00
 007824,0.00004810,-0.00017704,0.00008637,-0.00017333,0.00054698,-0.000
 10701,0.00074578,-0.00028092,-0.00005727,-0.00022857,-0.00005398,-0.00
 002911,0.00000205,-0.00019160,0.00017557,0.00001283,0.00013617,0.00002
 670,0.00004163,0.00007483,-0.00008219,0.00005481,-0.00005373,0.0000461
 8,0.00002035,0.00002329,0.00001048,0.00000034,-0.00113399,0.00039623,0
 .00884996,-0.00094581,0.00037253,-0.00151749,0.00878285,-0.00322340,-0
 .00154638,-0.00087273,0.00366632,0.00774962,-0.00015166,-0.00027617,-0
 .00115030,0.00386595,0.00824790,-0.08538472,-0.00167992,-0.00040321,-0
 .00412850,0.00862610,0.00864490,-0.00521065,0.00032787,0.00014398,0.00
 062864,-0.00050980,-0.00160562,-0.00377634,0.00040877,0.00011043,0.000
 11234,-0.00015850,-0.00005538,-0.00006172,-0.00028542,-0.00000241,-0.0
 0005347,-0.02760344,-0.14340167,0.27677753,-0.00011659,-0.00006428,-0.
 00004778,-0.00005012,0.00009801,0.00000778,0.00042276,-0.00019192,0.00
 000031,-0.00010819,0.00005184,0.00007929,-0.00004515,-0.00008339,-0.00
 005207,-0.00013350,0.00011088,0.00000919,0.00007236,0.00003302,0.00004
 991,0.00004783,-0.00013672,-0.00009867,-0.00003158,0.00002663,0.000005
 31,0.00000881,-0.00000548,0.00000763,0.00251089,-0.00042657,-0.0003135
 1,0.00015416,-0.00165361,0.00047653,-0.00784030,-0.00211522,0.00179980
 ,-0.00043698,-0.00232122,0.00064455,0.00006692,-0.00027341,0.00008457,
 0.01209838,-0.02892818,0.00965734,-0.00144086,-0.00410624,0.00146556,-
 0.00502473,0.00148577,0.00062867,-0.00049347,-0.00030892,0.00011472,0.
 00004734,-0.00092186,0.00033543,0.00051569,0.00025478,0.00015835,-0.00
 018190,-0.00014398,-0.00007424,-0.00033156,-0.00003591,-0.00006210,-0.
 13158558,0.03572102,-0.00224981,0.14393660,0.00013604,-0.00000229,0.00
 007173,-0.00041964,0.00012207,-0.00008972,0.00082454,-0.00032830,0.000
 07862,-0.00056139,-0.00013924,-0.00018862,-0.00000958,0.00008132,-0.00
 007743,-0.00023701,0.00015360,0.00002164,0.00017965,0.00007555,0.00009
 015,-0.00006024,-0.00010095,0.00015184,-0.00010328,0.00004924,0.000040
 57,0.00001481,0.00000240,0.00002250,-0.00157339,-0.00122112,0.00025150
 ,0.00044523,0.00011749,-0.00014548,0.00790052,-0.00248003,0.00027608,-
 0.00206084,-0.00160272,0.00045338,-0.00013621,0.00019871,0.00002695,-0
 .01428689,-0.05194463,0.02330944,-0.00294338,0.00059832,0.00015329,-0.
 00604204,0.00344977,0.00073007,-0.00058174,-0.00039198,0.00008338,0.00
 058971,0.00148385,-0.00047393,0.00033221,-0.00007413,0.00005530,-0.000
 14399,0.00008309,-0.00002194,-0.00029326,0.00005972,-0.00004469,0.0374
 7656,-0.48823031,0.11606715,-0.08608617,0.60134351,-0.00001641,0.00003
 774,-0.00001616,0.00013801,-0.00004115,0.00004324,-0.00026690,0.000155
 11,0.00001302,0.00007084,-0.00002273,0.00004624,0.00004945,0.00001225,
 0.00004209,0.00009098,-0.00008426,-0.00000953,-0.00005966,-0.00001490,
 -0.00003491,-0.00003454,0.00005144,-0.00004562,0.00002533,-0.00001818,
 -0.00002098,-0.00000351,0.00000066,-0.00001171,0.00002606,0.00012620,-
 0.00081122,-0.00012455,0.00024394,0.00013866,-0.00110294,0.00149337,0.
 00103616,0.00044614,0.00043949,-0.00147954,0.00004396,0.00001199,0.000
 08794,0.00537182,0.02540952,0.01119316,0.00112212,0.00036433,-0.000335
 23,0.00294706,-0.00030109,0.00255149,0.00019012,0.00003587,-0.00045743
 ,-0.00012278,-0.00017694,0.00051461,-0.00019335,-0.00005021,-0.0000617
 1,0.00007430,0.00002197,0.00003561,0.00014159,-0.00000294,0.00003200,-
 0.00290888,0.11654005,-0.11023477,0.00829895,-0.15674563,0.07292477,-0
 .00016854,-0.00021445,-0.00008327,-0.00038580,0.00027668,-0.00002510,0
 .00025817,-0.00103202,0.00006387,-0.00013245,0.00005906,0.00006694,-0.
 00013492,-0.00011795,-0.00003564,-0.00020765,0.00023700,0.00004513,0.0
 0016285,0.00008877,0.00007376,0.00007635,-0.00010907,-0.00015742,-0.00
 003563,0.00004908,-0.00000523,0.00002379,0.00000746,-0.00000340,-0.002
 52134,-0.00140333,0.00070986,-0.00056756,0.00082321,-0.00023599,0.0009
 2948,-0.00783734,0.00289369,-0.00130518,-0.00047845,0.00026146,0.00009
 177,-0.00016055,0.00008790,-0.06571250,0.01147352,0.00910171,0.0014585
 8,0.00022606,-0.00011355,-0.00152123,0.00580803,-0.00131855,-0.0001654
 8,-0.00023755,0.00010646,-0.00168832,-0.00267272,0.00103536,0.00090766
 ,0.00051491,0.00028516,-0.00033157,-0.00029325,-0.00014148,-0.00059167
 ,-0.00008636,-0.00011119,-0.46363063,0.14854117,0.01346001,-0.01206122
 ,0.06763977,-0.01420319,0.54725305,0.00006173,0.00000317,0.00004098,-0
 .00022732,0.00010966,-0.00001805,0.00018069,-0.00029550,-0.00002213,-0
 .00024590,-0.00009592,-0.00010649,0.00001062,0.00005510,-0.00004790,-0
 .00009864,0.00004739,0.00000346,0.00005886,0.00002506,0.00002809,-0.00
 002437,-0.00002582,0.00010673,-0.00004663,0.00001995,0.00002370,0.0000
 0516,0.00000013,0.00001280,-0.00127000,0.00053585,-0.00043988,-0.00151
 528,0.00067212,0.00001554,-0.00061800,-0.00195484,0.00170960,0.0009133
 6,0.00219742,-0.00098172,-0.00024085,0.00019350,0.00000906,-0.00326960
 ,0.01866157,0.00071731,-0.00143356,0.00030273,0.00020582,-0.00410532,-
 0.00776580,0.00335952,0.00013316,0.00001347,-0.00002019,-0.00376945,0.
 00095909,0.00026467,0.00006524,-0.00006671,0.00000240,-0.00003591,0.00
 005972,0.00000294,-0.00008636,0.00003121,-0.00001328,0.14663891,-0.188
 04291,0.01132695,0.09002114,-0.06130295,0.01251408,-0.22110168,0.23566
 328,-0.00000933,0.00001411,0.00000829,0.00003630,-0.00005144,0.0000360
 3,-0.00015355,0.00006965,-0.00042002,0.00013620,0.00002456,0.00005039,
 0.00001358,0.00000032,0.00002814,0.00007416,-0.00005730,-0.00000578,-0
 .00003874,-0.00000501,-0.00002490,-0.00000643,0.00002775,-0.00001677,0
 .00001849,-0.00001357,-0.00000810,-0.00000836,-0.00000172,-0.00000424,
 0.00058065,-0.00031974,-0.00120173,0.00058913,-0.00026333,0.00014679,0
 .00044362,0.00264355,0.00188508,-0.00020496,-0.00080641,-0.00041188,0.
 00007252,-0.00001647,0.00006083,0.01386289,-0.00144314,0.01788838,0.00
 024986,0.00001736,0.00045113,0.00159126,0.00193470,0.00038303,-0.00001
 298,0.00003581,0.00000711,0.00138841,0.00008026,-0.00026874,-0.0001668
 2,-0.00008123,-0.00005350,0.00006219,0.00004476,0.00003203,0.00011134,
 0.00001330,0.00002416,0.01405358,0.01094342,-0.08157776,-0.02092573,0.
 01590383,0.02485983,-0.01175729,-0.02869403,0.03813221\\-0.00000783,0.
 00000016,-0.00000294,0.00001043,-0.00000101,0.00000288,-0.00000451,0.0
 0000698,0.00000143,0.00000253,-0.00000696,-0.00000339,-0.00000105,0.00
 000646,0.00000310,-0.00000264,0.00000323,0.00000112,-0.00000038,-0.000
 00191,-0.00000112,-0.00000083,-0.00000014,0.00000037,0.00000003,-0.000
 00423,-0.00000150,0.00000255,-0.00000199,-0.00000025,-0.00000420,-0.00
 000355,0.00000139,0.00000367,-0.00000290,-0.00000006,0.00000486,0.0000
 0580,-0.00000291,-0.00000078,0.00000826,-0.00000249,-0.00000137,0.0000
 0050,0.00000026,-0.00000272,-0.00000142,0.00000252,0.00000023,-0.00000
 254,0.00000076,0.00000142,0.00000294,-0.00000212,0.00000012,-0.0000056
 6,0.00000207,0.00000093,-0.00000085,0.00000063,0.00000013,0.00000022,0
 .00000145,-0.00000106,-0.00000017,-0.00000046,0.00000121,-0.00000154,-
 0.00000045,-0.00001454,0.00001246,-0.00000265,0.00000181,-0.00000695,0
 .00000219,0.00001198,-0.00000518,0.00000019\\\@


 IT MATTERS NOT HOW DEEP YOU PLOW,
 BUT HOW LONG YOU STAY IN THE FURROW.
 Job cpu time:  0 days 19 hours 20 minutes 47.6 seconds.
 File lengths (MBytes):  RWF=    576 Int=      0 D2E=      0 Chk=     15 Scr=      1
 Normal termination of Gaussian 09 at Sat Apr 30 08:33:30 2005.
