 Entering Gaussian System, Link 0=/home/ubuntu/g09/g09
 Input=p-NO2-Ph-N2-OTs-RB3LYP-aug-cc-pVDZ-T75.gjf
 Output=p-NO2-Ph-N2-OTs-RB3LYP-aug-cc-pVDZ-T75.log
 Initial command:
 /home/ubuntu/g09/l1.exe /home/ubuntu/g09/Gau-4263.inp -scrdir=/home/ubuntu/g09/
 Entering Link 1 = /home/ubuntu/g09/l1.exe PID=      4265.
  
 Copyright (c) 1988,1990,1992,1993,1995,1998,2003,2009,2010,
            Gaussian, Inc.  All Rights Reserved.
  
 This is part of the Gaussian(R) 09 program.  It is based on
 the Gaussian(R) 03 system (copyright 2003, Gaussian, Inc.),
 the Gaussian(R) 98 system (copyright 1998, Gaussian, Inc.),
 the Gaussian(R) 94 system (copyright 1995, Gaussian, Inc.),
 the Gaussian 92(TM) system (copyright 1992, Gaussian, Inc.),
 the Gaussian 90(TM) system (copyright 1990, Gaussian, Inc.),
 the Gaussian 88(TM) system (copyright 1988, Gaussian, Inc.),
 the Gaussian 86(TM) system (copyright 1986, Carnegie Mellon
 University), and the Gaussian 82(TM) system (copyright 1983,
 Carnegie Mellon University). Gaussian is a federally registered
 trademark of Gaussian, Inc.
  
 This software contains proprietary and confidential information,
 including trade secrets, belonging to Gaussian, Inc.
  
 This software is provided under written license and may be
 used, copied, transmitted, or stored only in accord with that
 written license.
  
 The following legend is applicable only to US Government
 contracts under FAR:
  
                    RESTRICTED RIGHTS LEGEND
  
 Use, reproduction and disclosure by the US Government is
 subject to restrictions as set forth in subparagraphs (a)
 and (c) of the Commercial Computer Software - Restricted
 Rights clause in FAR 52.227-19.
  
 Gaussian, Inc.
 340 Quinnipiac St., Bldg. 40, Wallingford CT 06492
  
  
 ---------------------------------------------------------------
 Warning -- This program may not be used in any manner that
 competes with the business of Gaussian, Inc. or will provide
 assistance to any competitor of Gaussian, Inc.  The licensee
 of this program is prohibited from giving any competitor of
 Gaussian, Inc. access to this program.  By using this program,
 the user acknowledges that Gaussian, Inc. is engaged in the
 business of creating and licensing software in the field of
 computational chemistry and represents and warrants to the
 licensee that it is not a competitor of Gaussian, Inc. and that
 it will not use this program in any manner prohibited above.
 ---------------------------------------------------------------
  

 Cite this work as:
 Gaussian 09, Revision B.01,
 M. J. Frisch, G. W. Trucks, H. B. Schlegel, G. E. Scuseria, 
 M. A. Robb, J. R. Cheeseman, G. Scalmani, V. Barone, B. Mennucci, 
 G. A. Petersson, H. Nakatsuji, M. Caricato, X. Li, H. P. Hratchian, 
 A. F. Izmaylov, J. Bloino, G. Zheng, J. L. Sonnenberg, M. Hada, 
 M. Ehara, K. Toyota, R. Fukuda, J. Hasegawa, M. Ishida, T. Nakajima, 
 Y. Honda, O. Kitao, H. Nakai, T. Vreven, J. A. Montgomery, Jr., 
 J. E. Peralta, F. Ogliaro, M. Bearpark, J. J. Heyd, E. Brothers, 
 K. N. Kudin, V. N. Staroverov, T. Keith, R. Kobayashi, J. Normand, 
 K. Raghavachari, A. Rendell, J. C. Burant, S. S. Iyengar, J. Tomasi, 
 M. Cossi, N. Rega, J. M. Millam, M. Klene, J. E. Knox, J. B. Cross, 
 V. Bakken, C. Adamo, J. Jaramillo, R. Gomperts, R. E. Stratmann, 
 O. Yazyev, A. J. Austin, R. Cammi, C. Pomelli, J. W. Ochterski, 
 R. L. Martin, K. Morokuma, V. G. Zakrzewski, G. A. Voth, 
 P. Salvador, J. J. Dannenberg, S. Dapprich, A. D. Daniels, 
 O. Farkas, J. B. Foresman, J. V. Ortiz, J. Cioslowski, 
 and D. J. Fox, Gaussian, Inc., Wallingford CT, 2010.
 
 ******************************************
 Gaussian 09:  EM64L-G09RevB.01 12-Aug-2010
                 5-May-2017 
 ******************************************
 %mem=500MW
 %nproc=7
 Will use up to    7 processors via shared memory.
 ----------------------------------------------------------------------
 #p Temperature=348.15 int=(grid=ultrafine) CPHF=(grid=fine) freq rb3ly
 p/aug-cc-pvdz
 ----------------------------------------------------------------------
 1/10=4,30=1,38=1,112=348150/1,3;
 2/12=2,17=6,18=5,40=1/2;
 3/5=16,7=10,11=2,16=1,25=1,30=1,71=2,74=-5,75=-5,116=1/1,2,3;
 4//1;
 5/5=2,38=5,96=4,98=1/2;
 8/6=4,10=90,11=11/1;
 11/6=1,8=1,9=11,15=111,16=1/1,2,10;
 10/6=1,60=4/2;
 6/7=2,8=2,9=2,10=2,18=1,28=1/1;
 7/8=1,10=1,25=1/1,2,3,16;
 1/10=4,30=1/3;
 99//99;
 Leave Link    1 at Fri May  5 14:59:04 2017, MaxMem=  524288000 cpu:       0.2
 (Enter /home/ubuntu/g09/l101.exe)
 ------------------------------------
 p-NO2-Ph-N2-OTs-RB3LYP-aug-cc-pVDZ--
 ------------------------------------
 Symbolic Z-matrix:
 Charge =  0 Multiplicity = 1
 C                     2.87135   0.30389  -1.12845 
 C                     1.99738  -0.77939  -1.1149 
 C                     2.01019  -1.6587   -0.02259 
 C                     2.90576  -1.48162   1.03922 
 C                     3.76394  -0.384     1.03947 
 C                     3.73403   0.49236  -0.04612 
 H                     2.88856   1.00514  -1.95874 
 H                     1.31036  -0.94529  -1.94135 
 H                     2.92125  -2.20022   1.85682 
 H                     4.45831  -0.20813   1.8569 
 N                     4.64818   1.65005  -0.05537 
 O                     5.39931   1.79231   0.90631 
 O                     4.60299   2.40544  -1.02348 
 N                     1.21651  -2.84866  -0.01764 
 N                     0.00256  -2.89306  -0.04895 
 C                    -2.84941   0.76546  -1.15496 
 C                    -3.12922   2.12822  -1.07066 
 C                    -3.24325   2.7735    0.174 
 C                    -3.07369   2.01428   1.3423 
 C                    -2.79331   0.64756   1.28357 
 C                    -2.6836    0.04409   0.03055 
 H                    -2.77593   0.26171  -2.11691 
 H                    -3.26732   2.70091  -1.98873 
 H                    -3.16664   2.49642   2.31579 
 H                    -2.67567   0.05625   2.18971 
 S                    -2.32835  -1.70861  -0.06094 
 O                    -0.61693  -1.54026  -0.03509 
 O                    -2.70205  -2.24396  -1.38611 
 O                    -2.73126  -2.3868    1.18722 
 C                    -3.54948   4.24928   0.24071 
 H                    -2.78043   4.83406  -0.28436 
 H                    -4.51228   4.47236  -0.2415 
 H                    -3.59795   4.60277   1.27752 
 
 NAtoms=     33 NQM=     33 NQMF=      0 NMic=      0 NMicF=      0 NTot=     33.
                    Isotopes and Nuclear Properties:
 (Nuclear quadrupole moments (NQMom) in fm**2, nuclear magnetic moments (NMagM)
  in nuclear magnetons)

  Atom         1           2           3           4           5           6           7           8           9          10
 IAtWgt=          12          12          12          12          12          12           1           1           1           1
 AtmWgt=  12.0000000  12.0000000  12.0000000  12.0000000  12.0000000  12.0000000   1.0078250   1.0078250   1.0078250   1.0078250
 NucSpn=           0           0           0           0           0           0           1           1           1           1
 AtZEff=   0.0000000   0.0000000   0.0000000   0.0000000   0.0000000   0.0000000   0.0000000   0.0000000   0.0000000   0.0000000
 NQMom=    0.0000000   0.0000000   0.0000000   0.0000000   0.0000000   0.0000000   0.0000000   0.0000000   0.0000000   0.0000000
 NMagM=    0.0000000   0.0000000   0.0000000   0.0000000   0.0000000   0.0000000   2.7928460   2.7928460   2.7928460   2.7928460

  Atom        11          12          13          14          15          16          17          18          19          20
 IAtWgt=          14          16          16          14          14          12          12          12          12          12
 AtmWgt=  14.0030740  15.9949146  15.9949146  14.0030740  14.0030740  12.0000000  12.0000000  12.0000000  12.0000000  12.0000000
 NucSpn=           2           0           0           2           2           0           0           0           0           0
 AtZEff=   0.0000000   0.0000000   0.0000000   0.0000000   0.0000000   0.0000000   0.0000000   0.0000000   0.0000000   0.0000000
 NQMom=    2.0440000   0.0000000   0.0000000   2.0440000   2.0440000   0.0000000   0.0000000   0.0000000   0.0000000   0.0000000
 NMagM=    0.4037610   0.0000000   0.0000000   0.4037610   0.4037610   0.0000000   0.0000000   0.0000000   0.0000000   0.0000000

  Atom        21          22          23          24          25          26          27          28          29          30
 IAtWgt=          12           1           1           1           1          32          16          16          16          12
 AtmWgt=  12.0000000   1.0078250   1.0078250   1.0078250   1.0078250  31.9720718  15.9949146  15.9949146  15.9949146  12.0000000
 NucSpn=           0           1           1           1           1           0           0           0           0           0
 AtZEff=   0.0000000   0.0000000   0.0000000   0.0000000   0.0000000   0.0000000   0.0000000   0.0000000   0.0000000   0.0000000
 NQMom=    0.0000000   0.0000000   0.0000000   0.0000000   0.0000000   0.0000000   0.0000000   0.0000000   0.0000000   0.0000000
 NMagM=    0.0000000   2.7928460   2.7928460   2.7928460   2.7928460   0.0000000   0.0000000   0.0000000   0.0000000   0.0000000

  Atom        31          32          33
 IAtWgt=           1           1           1
 AtmWgt=   1.0078250   1.0078250   1.0078250
 NucSpn=           1           1           1
 AtZEff=   0.0000000   0.0000000   0.0000000
 NQMom=    0.0000000   0.0000000   0.0000000
 NMagM=    2.7928460   2.7928460   2.7928460
 Leave Link  101 at Fri May  5 14:59:04 2017, MaxMem=  524288000 cpu:       0.2
 (Enter /home/ubuntu/g09/l103.exe)

 GradGradGradGradGradGradGradGradGradGradGradGradGradGradGradGradGradGrad
 Berny optimization.
 Initialization pass.
 Trust Radius=3.00D-01 FncErr=1.00D-07 GrdErr=1.00D-07
 Number of steps in this run=      2 maximum allowed number of steps=      2.
 GradGradGradGradGradGradGradGradGradGradGradGradGradGradGradGradGradGrad

 Leave Link  103 at Fri May  5 14:59:04 2017, MaxMem=  524288000 cpu:       0.1
 (Enter /home/ubuntu/g09/l202.exe)
                          Input orientation:                          
 ---------------------------------------------------------------------
 Center     Atomic      Atomic             Coordinates (Angstroms)
 Number     Number       Type             X           Y           Z
 ---------------------------------------------------------------------
      1          6           0        2.871350    0.303890   -1.128450
      2          6           0        1.997380   -0.779390   -1.114900
      3          6           0        2.010190   -1.658700   -0.022590
      4          6           0        2.905760   -1.481620    1.039220
      5          6           0        3.763940   -0.384000    1.039470
      6          6           0        3.734030    0.492360   -0.046120
      7          1           0        2.888560    1.005140   -1.958740
      8          1           0        1.310360   -0.945290   -1.941350
      9          1           0        2.921250   -2.200220    1.856820
     10          1           0        4.458310   -0.208130    1.856900
     11          7           0        4.648180    1.650050   -0.055370
     12          8           0        5.399310    1.792310    0.906310
     13          8           0        4.602990    2.405440   -1.023480
     14          7           0        1.216510   -2.848660   -0.017640
     15          7           0        0.002560   -2.893060   -0.048950
     16          6           0       -2.849410    0.765460   -1.154960
     17          6           0       -3.129220    2.128220   -1.070660
     18          6           0       -3.243250    2.773500    0.174000
     19          6           0       -3.073690    2.014280    1.342300
     20          6           0       -2.793310    0.647560    1.283570
     21          6           0       -2.683600    0.044090    0.030550
     22          1           0       -2.775930    0.261710   -2.116910
     23          1           0       -3.267320    2.700910   -1.988730
     24          1           0       -3.166640    2.496420    2.315790
     25          1           0       -2.675670    0.056250    2.189710
     26         16           0       -2.328350   -1.708610   -0.060940
     27          8           0       -0.616930   -1.540260   -0.035090
     28          8           0       -2.702050   -2.243960   -1.386110
     29          8           0       -2.731260   -2.386800    1.187220
     30          6           0       -3.549480    4.249280    0.240710
     31          1           0       -2.780430    4.834060   -0.284360
     32          1           0       -4.512280    4.472360   -0.241500
     33          1           0       -3.597950    4.602770    1.277520
 ---------------------------------------------------------------------
                    Distance matrix (angstroms):
                    1          2          3          4          5
     1  C    0.000000
     2  C    1.391942   0.000000
     3  C    2.411697   1.402316   0.000000
     4  C    2.808562   2.441007   1.400301   0.000000
     5  C    2.443315   2.813961   2.414223   1.393285   0.000000
     6  C    1.396845   2.403246   2.756671   2.400123   1.395495
     7  H    1.086936   2.165829   3.408263   3.895130   3.418371
     8  H    2.158228   1.087446   2.163413   3.422974   3.901332
     9  H    3.896780   3.421025   2.157651   1.088621   2.162601
    10  H    3.419491   3.900527   3.410268   2.168130   1.086863
    11  N    2.474019   3.748536   4.231772   3.747201   2.473442
    12  O    3.570185   4.719328   4.925288   4.117533   2.725526
    13  O    2.725089   4.115909   4.923579   4.716414   3.569418
    14  N    3.729741   2.468930   1.430370   2.416468   3.698842
    15  N    4.428969   3.095667   2.356887   3.406589   4.650593
    16  C    5.739412   5.087194   5.547479   6.556354   7.062095
    17  C    6.272030   5.893910   6.469370   7.341902   7.634105
    18  C    6.721881   6.461307   6.876167   7.527614   7.734310
    19  C    6.661347   6.289529   6.418687   6.933037   7.252354
    20  C    6.166386   5.544326   5.486210   6.088720   6.642381
    21  C    5.680515   4.888941   4.993394   5.880999   6.540027
    22  H    5.733289   4.987224   5.566066   6.729187   7.290376
    23  H    6.645980   6.371274   7.122080   8.047916   8.253804
    24  H    7.288848   7.011966   7.037941   7.370785   7.613065
    25  H    6.468457   5.784128   5.458261   5.902629   6.556329
    26  S    5.676849   4.548211   4.338997   5.353297   6.330994
    27  O    4.094438   2.929083   2.629818   3.683331   4.656569
    28  O    6.133573   4.929824   4.940336   6.157184   7.152057
    29  O    6.632600   5.499414   4.947233   5.711151   6.798578
    30  C    7.659488   7.608736   8.116864   8.668965   8.694332
    31  H    7.292294   7.418092   8.073072   8.600723   8.474046
    32  H    8.525304   8.409481   8.954353   9.597783   9.680957
    33  H    8.131476   8.123979   8.505735   8.909255   8.895053
                    6          7          8          9         10
     6  C    0.000000
     7  H    2.153109   0.000000
     8  H    3.396014   2.509023   0.000000
     9  H    3.395847   4.983362   4.312298   0.000000
    10  H    2.153312   4.300610   4.987955   2.516143   0.000000
    11  N    1.475128   2.671140   4.629660   4.632854   2.673137
    12  O    2.317358   3.889989   5.685344   4.794220   2.406421
    13  O    2.317369   2.403086   4.786574   5.686518   3.892078
    14  N    4.183436   4.627677   2.707819   2.615380   4.582092
    15  N    5.038347   5.212702   3.014188   3.553975   5.540291
    16  C    6.681751   5.798949   4.566044   7.153083   7.963790
    17  C    7.129511   6.185764   5.469409   7.994606   8.461664
    18  C    7.344010   6.728653   6.248157   8.097582   8.428303
    19  C    7.112595   6.889387   6.225858   7.346159   7.869876
    20  C    6.663207   6.551647   5.456866   6.410512   7.324405
    21  C    6.433724   5.994152   4.562782   6.307657   7.376046
    22  H    6.835272   5.715256   4.264439   7.369497   8.267173
    23  H    7.594098   6.385248   5.852536   8.781101   9.106961
    24  H    7.564002   7.560487   7.071926   7.702693   8.103396
    25  H    6.802454   7.005047   5.827278   6.043839   7.146631
    26  S    6.449569   6.179177   4.166390   5.610507   7.210292
    27  O    4.802345   4.740037   2.775295   4.066152   5.577836
    28  O    7.120825   6.491493   4.253736   6.491534   8.119881
    29  O    7.184056   7.279059   5.310423   5.695090   7.542214
    30  C    8.200380   7.537266   7.440631   9.277834   9.306196
    31  H    7.832324   7.042842   7.271937   9.304563   9.077887
    32  H    9.158614   8.351225   8.132869  10.207039  10.333526
    33  H    8.509138   8.092659   8.076732   9.440139   9.401264
                   11         12         13         14         15
    11  N    0.000000
    12  O    1.228520   0.000000
    13  O    1.228777   2.175809   0.000000
    14  N    5.658284   6.315703   6.331313   0.000000
    15  N    6.497821   7.210418   7.084333   1.215165   0.000000
    16  C    7.629250   8.564148   7.631847   5.557613   4.768832
    17  C    7.857952   8.761111   7.737322   6.690557   6.005430
    18  C    7.974297   8.728852   7.945622   7.178779   6.534133
    19  C    7.855789   8.487113   8.042471   6.625967   5.956583
    20  C    7.627157   8.280809   7.944676   5.476802   4.704093
    21  C    7.506097   8.316049   7.731840   4.856046   3.981033
    22  H    7.829102   8.849697   7.761419   5.479134   4.684980
    23  H    8.215676   9.182444   7.934784   7.401868   6.763680
    24  H    8.210369   8.709644   8.457314   7.295669   6.684483
    25  H    7.824280   8.358608   8.295913   5.334788   4.569786
    26  S    7.742906   8.538662   8.117596   3.723926   2.614614
    27  O    6.156287   6.941715   6.617630   2.252491   1.487961
    28  O    8.423780   9.336953   8.666720   4.194459   3.086137
    29  O    8.502724   9.146040   9.035706   4.153299   3.042727
    30  C    8.604957   9.303793   8.453442   8.553488   7.982099
    31  H    8.085456   8.807842   7.807649   8.664344   8.216376
    32  H    9.587184  10.331493   9.379328   9.298736   8.641196
    33  H    8.859673   9.433301   8.796492   8.965505   8.420847
                   16         17         18         19         20
    16  C    0.000000
    17  C    1.393741   0.000000
    18  C    2.439973   1.406616   0.000000
    19  C    2.801100   2.416287   1.403599   0.000000
    20  C    2.442023   2.801355   2.439921   1.396419   0.000000
    21  C    1.397606   2.398924   2.789886   2.398855   1.395088
    22  H    1.088353   2.168712   3.431581   3.889254   3.422345
    23  H    2.148438   1.090824   2.164082   3.406569   3.892156
    24  H    3.891396   3.406613   2.160997   1.090313   2.150148
    25  H    3.423446   3.889573   3.430551   2.170347   1.088382
    26  S    2.754888   4.047492   4.580562   4.047780   2.752350
    27  O    3.399179   4.565277   5.054681   4.535155   3.355898
    28  O    3.021879   4.404309   5.282210   5.070991   3.936548
    29  O    3.928932   5.063773   5.283696   4.417105   3.036523
    30  C    3.817721   2.528874   1.508693   2.536750   3.825145
    31  H    4.161275   2.839277   2.161065   3.268514   4.470498
    32  H    4.164211   2.845233   2.160834   3.258853   4.462039
    33  H    4.604587   3.443407   2.165594   2.641841   4.036232
                   21         22         23         24         25
    21  C    0.000000
    22  H    2.160432   0.000000
    23  H    3.387759   2.491504   0.000000
    24  H    3.386676   4.979499   4.310550   0.000000
    25  H    2.159209   4.312684   4.980325   2.492263   0.000000
    26  S    1.790679   2.882621   4.903255   4.902433   2.881109
    27  O    2.604918   3.498907   5.369246   5.321883   3.425929
    28  O    2.691178   2.611113   5.013424   6.032504   4.251841
    29  O    2.692468   4.234841   6.021529   5.030811   2.641320
    30  C    4.298551   4.696538   2.729005   2.743181   4.705704
    31  H    4.801287   4.925916   2.773494   3.517741   5.381400
    32  H    4.798714   4.925611   2.782225   3.500688   5.365254
    33  H    4.813786   5.571595   3.794045   2.387623   4.727953
                   26         27         28         29         30
    26  S    0.000000
    27  O    1.719875   0.000000
    28  O    1.477270   2.582281   0.000000
    29  O    1.476544   2.584775   2.577457   0.000000
    30  C    6.089220   6.495744   6.747358   6.752994   0.000000
    31  H    6.562075   6.736084   7.163684   7.369449   1.099593
    32  H    6.557937   7.167144   7.049540   7.229201   1.099670
    33  H    6.575475   6.953146   7.401032   7.043678   1.096485
                   31         32         33
    31  H    0.000000
    32  H    1.769737   0.000000
    33  H    1.778005   1.777759   0.000000
 Stoichiometry    C13H11N3O5S
 Framework group  C1[X(C13H11N3O5S)]
 Deg. of freedom    93
 Full point group                 C1      NOp   1
 Largest Abelian subgroup         C1      NOp   1
 Largest concise Abelian subgroup C1      NOp   1
                         Standard orientation:                         
 ---------------------------------------------------------------------
 Center     Atomic      Atomic             Coordinates (Angstroms)
 Number     Number       Type             X           Y           Z
 ---------------------------------------------------------------------
      1          6           0        2.871350    0.303889   -1.128450
      2          6           0        1.997379   -0.779391   -1.114900
      3          6           0        2.010189   -1.658701   -0.022590
      4          6           0        2.905759   -1.481621    1.039220
      5          6           0        3.763940   -0.384001    1.039470
      6          6           0        3.734030    0.492359   -0.046120
      7          1           0        2.888560    1.005139   -1.958740
      8          1           0        1.310359   -0.945290   -1.941350
      9          1           0        2.921249   -2.200221    1.856820
     10          1           0        4.458310   -0.208132    1.856900
     11          7           0        4.648181    1.650048   -0.055370
     12          8           0        5.399311    1.792308    0.906310
     13          8           0        4.602991    2.405438   -1.023480
     14          7           0        1.216508   -2.848660   -0.017640
     15          7           0        0.002558   -2.893060   -0.048950
     16          6           0       -2.849410    0.765462   -1.154960
     17          6           0       -3.129219    2.128222   -1.070660
     18          6           0       -3.243249    2.773502    0.174000
     19          6           0       -3.073689    2.014282    1.342300
     20          6           0       -2.793310    0.647562    1.283570
     21          6           0       -2.683600    0.044092    0.030550
     22          1           0       -2.775930    0.261712   -2.116910
     23          1           0       -3.267319    2.700912   -1.988730
     24          1           0       -3.166639    2.496422    2.315790
     25          1           0       -2.675670    0.056252    2.189710
     26         16           0       -2.328351   -1.708609   -0.060940
     27          8           0       -0.616931   -1.540259   -0.035090
     28          8           0       -2.702051   -2.243958   -1.386110
     29          8           0       -2.731261   -2.386798    1.187220
     30          6           0       -3.549478    4.249282    0.240710
     31          1           0       -2.780428    4.834062   -0.284360
     32          1           0       -4.512278    4.472362   -0.241500
     33          1           0       -3.597948    4.602772    1.277520
 ---------------------------------------------------------------------
 Rotational constants (GHZ):      0.3279558      0.1518033      0.1154792
 Leave Link  202 at Fri May  5 14:59:04 2017, MaxMem=  524288000 cpu:       0.0
 (Enter /home/ubuntu/g09/l301.exe)
 Standard basis: Aug-CC-pVDZ (5D, 7F)
 Ernie: Thresh=  0.10000D-02 Tol=  0.10000D-05 Strict=F.
 Ernie:  52 primitive shells out of 655 were deleted.
 There are   609 symmetry adapted basis functions of A   symmetry.
 Integral buffers will be    131072 words long.
 Raffenetti 2 integral format.
 Two-electron integral symmetry is turned on.
   609 basis functions,  1105 primitive gaussians,   653 cartesian basis functions
    83 alpha electrons       83 beta electrons
       nuclear repulsion energy      1867.4124638662 Hartrees.
 IExCor=  402 DFT=T Ex+Corr=B3LYP ExCW=0 ScaHFX=  0.200000
 ScaDFX=  0.800000  0.720000  1.000000  0.810000 ScalE2=  1.000000  1.000000
 IRadAn=      5 IRanWt=     -1 IRanGd=            0 ICorTp=0
 NAtoms=   33 NActive=   33 NUniq=   33 SFac= 1.00D+00 NAtFMM=   50 NAOKFM=F Big=F
 Leave Link  301 at Fri May  5 14:59:04 2017, MaxMem=  524288000 cpu:       0.2
 (Enter /home/ubuntu/g09/l302.exe)
 NPDir=0 NMtPBC=     1 NCelOv=     1 NCel=       1 NClECP=     1 NCelD=      1
         NCelK=      1 NCelE2=     1 NClLst=     1 CellRange=     0.0.
 One-electron integrals computed using PRISM.
 NBasis=   609 RedAO= T  NBF=   609
 NBsUse=   609 1.00D-06 NBFU=   609
 Precomputing XC quadrature grid using
 IXCGrd= 2 IRadAn=           5 IRanWt=          -1 IRanGd=           0 AccXCQ= 0.00D+00.
 NRdTot=    2856 NPtTot=      772566 NUsed=      793000 NTot=      793032
 NSgBfM=   642   642   643   643   644 NAtAll=    33    33.
 Leave Link  302 at Fri May  5 14:59:05 2017, MaxMem=  524288000 cpu:       9.9
 (Enter /home/ubuntu/g09/l303.exe)
 DipDrv:  MaxL=1.
 Leave Link  303 at Fri May  5 14:59:05 2017, MaxMem=  524288000 cpu:       0.9
 (Enter /home/ubuntu/g09/l401.exe)
 Harris functional with IExCor=  402 diagonalized for initial guess.
 ExpMin= 2.97D-02 ExpMax= 1.11D+05 ExpMxC= 1.07D+03 IAcc=3 IRadAn=         5 AccDes= 0.00D+00
 HarFok:  IExCor=  402 AccDes= 0.00D+00 IRadAn=         5 IDoV= 1
 ScaDFX=  1.000000  1.000000  1.000000  1.000000
 FoFCou: FMM=F IPFlag=           0 FMFlag=      100000 FMFlg1=           0
         NFxFlg=           0 DoJE=T BraDBF=F KetDBF=T FulRan=T
         Omega=  0.000000  0.000000  1.000000  0.000000  0.000000 ICntrl=     500 IOpCl=  0
         NMat0=    1 NMatS0=    1 NMatT0=    0 NMatD0=    1 NMtDS0=    0 NMtDT0=    0
         I1Cent=           4 NGrid=           0.
 Petite list used in FoFCou.
 Harris En= -1440.47046645212    
 Initial guess orbital symmetries:
       Occupied  (A) (A) (A) (A) (A) (A) (A) (A) (A) (A) (A) (A)
                 (A) (A) (A) (A) (A) (A) (A) (A) (A) (A) (A) (A)
                 (A) (A) (A) (A) (A) (A) (A) (A) (A) (A) (A) (A)
                 (A) (A) (A) (A) (A) (A) (A) (A) (A) (A) (A) (A)
                 (A) (A) (A) (A) (A) (A) (A) (A) (A) (A) (A) (A)
                 (A) (A) (A) (A) (A) (A) (A) (A) (A) (A) (A) (A)
                 (A) (A) (A) (A) (A) (A) (A) (A) (A) (A) (A)
       Virtual   (A) (A) (A) (A) (A) (A) (A) (A) (A) (A) (A) (A)
                 (A) (A) (A) (A) (A) (A) (A) (A) (A) (A) (A) (A)
                 (A) (A) (A) (A) (A) (A) (A) (A) (A) (A) (A) (A)
                 (A) (A) (A) (A) (A) (A) (A) (A) (A) (A) (A) (A)
                 (A) (A) (A) (A) (A) (A) (A) (A) (A) (A) (A) (A)
                 (A) (A) (A) (A) (A) (A) (A) (A) (A) (A) (A) (A)
                 (A) (A) (A) (A) (A) (A) (A) (A) (A) (A) (A) (A)
                 (A) (A) (A) (A) (A) (A) (A) (A) (A) (A) (A) (A)
                 (A) (A) (A) (A) (A) (A) (A) (A) (A) (A) (A) (A)
                 (A) (A) (A) (A) (A) (A) (A) (A) (A) (A) (A) (A)
                 (A) (A) (A) (A) (A) (A) (A) (A) (A) (A) (A) (A)
                 (A) (A) (A) (A) (A) (A) (A) (A) (A) (A) (A) (A)
                 (A) (A) (A) (A) (A) (A) (A) (A) (A) (A) (A) (A)
                 (A) (A) (A) (A) (A) (A) (A) (A) (A) (A) (A) (A)
                 (A) (A) (A) (A) (A) (A) (A) (A) (A) (A) (A) (A)
                 (A) (A) (A) (A) (A) (A) (A) (A) (A) (A) (A) (A)
                 (A) (A) (A) (A) (A) (A) (A) (A) (A) (A) (A) (A)
                 (A) (A) (A) (A) (A) (A) (A) (A) (A) (A) (A) (A)
                 (A) (A) (A) (A) (A) (A) (A) (A) (A) (A) (A) (A)
                 (A) (A) (A) (A) (A) (A) (A) (A) (A) (A) (A) (A)
                 (A) (A) (A) (A) (A) (A) (A) (A) (A) (A) (A) (A)
                 (A) (A) (A) (A) (A) (A) (A) (A) (A) (A) (A) (A)
                 (A) (A) (A) (A) (A) (A) (A) (A) (A) (A) (A) (A)
                 (A) (A) (A) (A) (A) (A) (A) (A) (A) (A) (A) (A)
                 (A) (A) (A) (A) (A) (A) (A) (A) (A) (A) (A) (A)
                 (A) (A) (A) (A) (A) (A) (A) (A) (A) (A) (A) (A)
                 (A) (A) (A) (A) (A) (A) (A) (A) (A) (A) (A) (A)
                 (A) (A) (A) (A) (A) (A) (A) (A) (A) (A) (A) (A)
                 (A) (A) (A) (A) (A) (A) (A) (A) (A) (A) (A) (A)
                 (A) (A) (A) (A) (A) (A) (A) (A) (A) (A) (A) (A)
                 (A) (A) (A) (A) (A) (A) (A) (A) (A) (A) (A) (A)
                 (A) (A) (A) (A) (A) (A) (A) (A) (A) (A) (A) (A)
                 (A) (A) (A) (A) (A) (A) (A) (A) (A) (A) (A) (A)
                 (A) (A) (A) (A) (A) (A) (A) (A) (A) (A) (A) (A)
                 (A) (A) (A) (A) (A) (A) (A) (A) (A) (A) (A) (A)
                 (A) (A) (A) (A) (A) (A) (A) (A) (A) (A) (A) (A)
                 (A) (A) (A) (A) (A) (A) (A) (A) (A) (A) (A) (A)
                 (A) (A) (A) (A) (A) (A) (A) (A) (A) (A) (A) (A)
                 (A) (A) (A) (A) (A) (A) (A) (A) (A) (A) (A) (A)
                 (A) (A) (A) (A) (A) (A) (A) (A) (A) (A) (A) (A)
                 (A) (A) (A) (A) (A) (A) (A) (A) (A) (A) (A) (A)
                 (A) (A) (A) (A) (A) (A) (A) (A) (A) (A) (A) (A)
                 (A) (A) (A) (A) (A) (A) (A) (A) (A) (A) (A) (A)
                 (A) (A) (A) (A) (A) (A) (A) (A) (A) (A)
 The electronic state of the initial guess is 1-A.
 Leave Link  401 at Fri May  5 14:59:18 2017, MaxMem=  524288000 cpu:      88.4
 (Enter /home/ubuntu/g09/l502.exe)
 Closed shell SCF:
 Requested convergence on RMS density matrix=1.00D-08 within 128 cycles.
 Requested convergence on MAX density matrix=1.00D-06.
 Requested convergence on             energy=1.00D-06.
 No special actions if energy rises.
 Using DIIS extrapolation, IDIIS=  1040.
 Integral symmetry usage will be decided dynamically.
       792690 words used for storage of precomputed grid.
 IEnd=     2099482 IEndB=     2099482 NGot=   524288000 MDV=   522632221
 LenX=   522632221 LenY=   522205159
 Fock matrices will be formed incrementally for  20 cycles.

 Cycle   1  Pass 1  IDiag  1:
 FoFCou: FMM=F IPFlag=           0 FMFlag=      100000 FMFlg1=           0
         NFxFlg=           0 DoJE=F BraDBF=F KetDBF=F FulRan=T
         Omega=  0.000000  0.000000  1.000000  0.000000  0.000000 ICntrl=       0 IOpCl=  0
         NMat0=    1 NMatS0=    1 NMatT0=    0 NMatD0=    1 NMtDS0=    0 NMtDT0=    0
         I1Cent=           0 NGrid=           0.
 Symmetry not used in FoFCou.
 E= -1439.80044723353    
 DIIS: error= 1.91D-02 at cycle   1 NSaved=   1.
 NSaved= 1 IEnMin= 1 EnMin= -1439.80044723353     IErMin= 1 ErrMin= 1.91D-02
 ErrMax= 1.91D-02 EMaxC= 1.00D-01 BMatC= 7.79D-01 BMatP= 7.79D-01
 IDIUse=3 WtCom= 8.09D-01 WtEn= 1.91D-01
 Coeff-Com:  0.100D+01
 Coeff-En:   0.100D+01
 Coeff:      0.100D+01
 Gap=     0.200 Goal=   None    Shift=    0.000
 GapD=    0.200 DampG=1.000 DampE=0.500 DampFc=0.5000 IDamp=-1.
 Damping current iteration by 5.00D-01
 RMSDP=4.27D-02 MaxDP=3.00D+00              OVMax= 3.41D-01

 Cycle   2  Pass 1  IDiag  1:
 RMSU=  8.05D-03    CP:  8.52D-01
 E= -1439.83402638629     Delta-E=       -0.033579152755 Rises=F Damp=T
 DIIS: error= 9.72D-03 at cycle   2 NSaved=   2.
 NSaved= 2 IEnMin= 2 EnMin= -1439.83402638629     IErMin= 2 ErrMin= 9.72D-03
 ErrMax= 9.72D-03 EMaxC= 1.00D-01 BMatC= 2.11D-01 BMatP= 7.79D-01
 IDIUse=3 WtCom= 9.03D-01 WtEn= 9.72D-02
 Coeff-Com:  0.316D+00 0.684D+00
 Coeff-En:   0.480D+00 0.520D+00
 Coeff:      0.332D+00 0.668D+00
 Gap=     0.164 Goal=   None    Shift=    0.000
 RMSDP=1.94D-02 MaxDP=1.63D+00 DE=-3.36D-02 OVMax= 2.62D-01

 Cycle   3  Pass 1  IDiag  1:
 RMSU=  4.82D-03    CP:  7.04D-01  1.02D+00
 E= -1440.36800482345     Delta-E=       -0.533978437161 Rises=F Damp=F
 DIIS: error= 6.52D-03 at cycle   3 NSaved=   3.
 NSaved= 3 IEnMin= 3 EnMin= -1440.36800482345     IErMin= 3 ErrMin= 6.52D-03
 ErrMax= 6.52D-03 EMaxC= 1.00D-01 BMatC= 1.26D-01 BMatP= 2.11D-01
 IDIUse=3 WtCom= 9.35D-01 WtEn= 6.52D-02
 Coeff-Com:  0.162D+00 0.444D+00 0.394D+00
 Coeff-En:   0.000D+00 0.000D+00 0.100D+01
 Coeff:      0.152D+00 0.415D+00 0.433D+00
 Gap=     0.171 Goal=   None    Shift=    0.000
 RMSDP=3.09D-03 MaxDP=2.11D-01 DE=-5.34D-01 OVMax= 9.74D-02

 Cycle   4  Pass 1  IDiag  1:
 RMSU=  1.42D-03    CP:  7.12D-01  9.77D-01  6.94D-01
 E= -1440.45193356532     Delta-E=       -0.083928741868 Rises=F Damp=F
 DIIS: error= 3.80D-03 at cycle   4 NSaved=   4.
 NSaved= 4 IEnMin= 4 EnMin= -1440.45193356532     IErMin= 4 ErrMin= 3.80D-03
 ErrMax= 3.80D-03 EMaxC= 1.00D-01 BMatC= 3.35D-02 BMatP= 1.26D-01
 IDIUse=3 WtCom= 9.62D-01 WtEn= 3.80D-02
 Coeff-Com:  0.391D-01 0.152D+00 0.325D+00 0.484D+00
 Coeff-En:   0.000D+00 0.000D+00 0.246D+00 0.754D+00
 Coeff:      0.376D-01 0.146D+00 0.322D+00 0.494D+00
 Gap=     0.164 Goal=   None    Shift=    0.000
 RMSDP=9.39D-04 MaxDP=5.60D-02 DE=-8.39D-02 OVMax= 4.02D-02

 Cycle   5  Pass 1  IDiag  1:
 RMSU=  5.50D-04    CP:  7.15D-01  9.66D-01  6.65D-01  8.74D-01
 E= -1440.47688723675     Delta-E=       -0.024953671435 Rises=F Damp=F
 DIIS: error= 8.10D-04 at cycle   5 NSaved=   5.
 NSaved= 5 IEnMin= 5 EnMin= -1440.47688723675     IErMin= 5 ErrMin= 8.10D-04
 ErrMax= 8.10D-04 EMaxC= 1.00D-01 BMatC= 2.65D-03 BMatP= 3.35D-02
 IDIUse=3 WtCom= 9.92D-01 WtEn= 8.10D-03
 Coeff-Com:  0.195D-02 0.306D-01 0.136D+00 0.304D+00 0.528D+00
 Coeff-En:   0.000D+00 0.000D+00 0.000D+00 0.577D-01 0.942D+00
 Coeff:      0.193D-02 0.303D-01 0.135D+00 0.302D+00 0.531D+00
 Gap=     0.160 Goal=   None    Shift=    0.000
 RMSDP=4.72D-04 MaxDP=3.86D-02 DE=-2.50D-02 OVMax= 1.14D-02

 Cycle   6  Pass 1  IDiag  1:
 RMSU=  1.98D-04    CP:  7.14D-01  9.73D-01  6.94D-01  7.92D-01  7.50D-01
 E= -1440.47905443104     Delta-E=       -0.002167194290 Rises=F Damp=F
 DIIS: error= 3.39D-04 at cycle   6 NSaved=   6.
 NSaved= 6 IEnMin= 6 EnMin= -1440.47905443104     IErMin= 6 ErrMin= 3.39D-04
 ErrMax= 3.39D-04 EMaxC= 1.00D-01 BMatC= 2.82D-04 BMatP= 2.65D-03
 IDIUse=3 WtCom= 9.97D-01 WtEn= 3.39D-03
 Coeff-Com: -0.278D-02 0.309D-02 0.432D-01 0.120D+00 0.313D+00 0.523D+00
 Coeff-En:   0.000D+00 0.000D+00 0.000D+00 0.000D+00 0.564D-01 0.944D+00
 Coeff:     -0.277D-02 0.308D-02 0.431D-01 0.120D+00 0.312D+00 0.525D+00
 Gap=     0.161 Goal=   None    Shift=    0.000
 RMSDP=1.77D-04 MaxDP=1.19D-02 DE=-2.17D-03 OVMax= 4.97D-03

 Cycle   7  Pass 1  IDiag  1:
 RMSU=  7.59D-05    CP:  7.13D-01  9.77D-01  6.88D-01  8.26D-01  7.80D-01
                    CP:  6.83D-01
 E= -1440.47927084093     Delta-E=       -0.000216409881 Rises=F Damp=F
 DIIS: error= 1.72D-04 at cycle   7 NSaved=   7.
 NSaved= 7 IEnMin= 7 EnMin= -1440.47927084093     IErMin= 7 ErrMin= 1.72D-04
 ErrMax= 1.72D-04 EMaxC= 1.00D-01 BMatC= 5.72D-05 BMatP= 2.82D-04
 IDIUse=3 WtCom= 9.98D-01 WtEn= 1.72D-03
 Coeff-Com: -0.190D-02-0.103D-02 0.135D-01 0.444D-01 0.149D+00 0.352D+00
 Coeff-Com:  0.443D+00
 Coeff-En:   0.000D+00 0.000D+00 0.000D+00 0.000D+00 0.000D+00 0.156D+00
 Coeff-En:   0.844D+00
 Coeff:     -0.190D-02-0.103D-02 0.135D-01 0.443D-01 0.149D+00 0.352D+00
 Coeff:      0.444D+00
 Gap=     0.161 Goal=   None    Shift=    0.000
 RMSDP=4.81D-05 MaxDP=3.53D-03 DE=-2.16D-04 OVMax= 3.03D-03

 Cycle   8  Pass 1  IDiag  1:
 RMSU=  3.00D-05    CP:  7.13D-01  9.77D-01  6.89D-01  8.26D-01  7.86D-01
                    CP:  6.99D-01  8.10D-01
 E= -1440.47931655860     Delta-E=       -0.000045717675 Rises=F Damp=F
 DIIS: error= 8.06D-05 at cycle   8 NSaved=   8.
 NSaved= 8 IEnMin= 8 EnMin= -1440.47931655860     IErMin= 8 ErrMin= 8.06D-05
 ErrMax= 8.06D-05 EMaxC= 1.00D-01 BMatC= 8.78D-06 BMatP= 5.72D-05
 IDIUse=1 WtCom= 1.00D+00 WtEn= 0.00D+00
 Coeff-Com: -0.959D-03-0.128D-02 0.369D-02 0.150D-01 0.649D-01 0.177D+00
 Coeff-Com:  0.311D+00 0.431D+00
 Coeff:     -0.959D-03-0.128D-02 0.369D-02 0.150D-01 0.649D-01 0.177D+00
 Coeff:      0.311D+00 0.431D+00
 Gap=     0.161 Goal=   None    Shift=    0.000
 RMSDP=1.77D-05 MaxDP=7.08D-04 DE=-4.57D-05 OVMax= 1.70D-03

 Cycle   9  Pass 1  IDiag  1:
 RMSU=  9.58D-06    CP:  7.13D-01  9.77D-01  6.90D-01  8.24D-01  7.87D-01
                    CP:  7.03D-01  7.76D-01  7.69D-01
 E= -1440.47932230692     Delta-E=       -0.000005748315 Rises=F Damp=F
 DIIS: error= 3.71D-05 at cycle   9 NSaved=   9.
 NSaved= 9 IEnMin= 9 EnMin= -1440.47932230692     IErMin= 9 ErrMin= 3.71D-05
 ErrMax= 3.71D-05 EMaxC= 1.00D-01 BMatC= 1.78D-06 BMatP= 8.78D-06
 IDIUse=1 WtCom= 1.00D+00 WtEn= 0.00D+00
 Coeff-Com: -0.349D-03-0.786D-03 0.159D-03 0.255D-02 0.204D-01 0.642D-01
 Coeff-Com:  0.148D+00 0.326D+00 0.441D+00
 Coeff:     -0.349D-03-0.786D-03 0.159D-03 0.255D-02 0.204D-01 0.642D-01
 Coeff:      0.148D+00 0.326D+00 0.441D+00
 Gap=     0.161 Goal=   None    Shift=    0.000
 RMSDP=9.22D-06 MaxDP=4.62D-04 DE=-5.75D-06 OVMax= 6.39D-04

 Cycle  10  Pass 1  IDiag  1:
 RMSU=  4.52D-06    CP:  7.13D-01  9.77D-01  6.89D-01  8.25D-01  7.87D-01
                    CP:  7.01D-01  7.76D-01  6.97D-01  5.77D-01
 E= -1440.47932370062     Delta-E=       -0.000001393708 Rises=F Damp=F
 DIIS: error= 7.77D-06 at cycle  10 NSaved=  10.
 NSaved=10 IEnMin=10 EnMin= -1440.47932370062     IErMin=10 ErrMin= 7.77D-06
 ErrMax= 7.77D-06 EMaxC= 1.00D-01 BMatC= 1.79D-07 BMatP= 1.78D-06
 IDIUse=1 WtCom= 1.00D+00 WtEn= 0.00D+00
 Coeff-Com: -0.509D-04-0.250D-03-0.417D-03-0.825D-03 0.248D-02 0.116D-01
 Coeff-Com:  0.435D-01 0.139D+00 0.289D+00 0.516D+00
 Coeff:     -0.509D-04-0.250D-03-0.417D-03-0.825D-03 0.248D-02 0.116D-01
 Coeff:      0.435D-01 0.139D+00 0.289D+00 0.516D+00
 Gap=     0.161 Goal=   None    Shift=    0.000
 RMSDP=3.18D-06 MaxDP=1.89D-04 DE=-1.39D-06 OVMax= 1.35D-04

 Cycle  11  Pass 1  IDiag  1:
 RMSU=  1.76D-06    CP:  7.13D-01  9.77D-01  6.89D-01  8.25D-01  7.87D-01
                    CP:  7.01D-01  7.80D-01  7.13D-01  6.09D-01  8.29D-01
 E= -1440.47932383531     Delta-E=       -0.000000134685 Rises=F Damp=F
 DIIS: error= 3.08D-06 at cycle  11 NSaved=  11.
 NSaved=11 IEnMin=11 EnMin= -1440.47932383531     IErMin=11 ErrMin= 3.08D-06
 ErrMax= 3.08D-06 EMaxC= 1.00D-01 BMatC= 2.65D-08 BMatP= 1.79D-07
 IDIUse=1 WtCom= 1.00D+00 WtEn= 0.00D+00
 Coeff-Com:  0.527D-05-0.791D-04-0.256D-03-0.765D-03-0.501D-03 0.883D-03
 Coeff-Com:  0.130D-01 0.565D-01 0.144D+00 0.347D+00 0.440D+00
 Coeff:      0.527D-05-0.791D-04-0.256D-03-0.765D-03-0.501D-03 0.883D-03
 Coeff:      0.130D-01 0.565D-01 0.144D+00 0.347D+00 0.440D+00
 Gap=     0.161 Goal=   None    Shift=    0.000
 RMSDP=1.48D-06 MaxDP=9.30D-05 DE=-1.35D-07 OVMax= 4.57D-05

 Cycle  12  Pass 1  IDiag  1:
 RMSU=  6.56D-07    CP:  7.13D-01  9.77D-01  6.89D-01  8.25D-01  7.88D-01
                    CP:  7.01D-01  7.81D-01  7.27D-01  6.20D-01  7.79D-01
                    CP:  7.36D-01
 E= -1440.47932385954     Delta-E=       -0.000000024230 Rises=F Damp=F
 DIIS: error= 8.75D-07 at cycle  12 NSaved=  12.
 NSaved=12 IEnMin=12 EnMin= -1440.47932385954     IErMin=12 ErrMin= 8.75D-07
 ErrMax= 8.75D-07 EMaxC= 1.00D-01 BMatC= 1.68D-09 BMatP= 2.65D-08
 IDIUse=1 WtCom= 1.00D+00 WtEn= 0.00D+00
 Coeff-Com:  0.105D-04-0.481D-05-0.813D-04-0.307D-03-0.786D-03-0.162D-02
 Coeff-Com: -0.243D-03 0.747D-02 0.322D-01 0.112D+00 0.237D+00 0.615D+00
 Coeff:      0.105D-04-0.481D-05-0.813D-04-0.307D-03-0.786D-03-0.162D-02
 Coeff:     -0.243D-03 0.747D-02 0.322D-01 0.112D+00 0.237D+00 0.615D+00
 Gap=     0.161 Goal=   None    Shift=    0.000
 RMSDP=5.38D-07 MaxDP=3.97D-05 DE=-2.42D-08 OVMax= 1.32D-05

 Cycle  13  Pass 1  IDiag  1:
 RMSU=  2.00D-07    CP:  7.13D-01  9.77D-01  6.89D-01  8.25D-01  7.88D-01
                    CP:  7.01D-01  7.83D-01  7.26D-01  6.23D-01  8.13D-01
                    CP:  7.38D-01  6.91D-01
 E= -1440.47932386118     Delta-E=       -0.000000001635 Rises=F Damp=F
 DIIS: error= 3.49D-07 at cycle  13 NSaved=  13.
 NSaved=13 IEnMin=13 EnMin= -1440.47932386118     IErMin=13 ErrMin= 3.49D-07
 ErrMax= 3.49D-07 EMaxC= 1.00D-01 BMatC= 2.57D-10 BMatP= 1.68D-09
 IDIUse=1 WtCom= 1.00D+00 WtEn= 0.00D+00
 Coeff-Com:  0.538D-05 0.676D-05-0.165D-04-0.895D-04-0.432D-03-0.117D-02
 Coeff-Com: -0.189D-02-0.339D-02-0.685D-03 0.192D-01 0.655D-01 0.337D+00
 Coeff-Com:  0.586D+00
 Coeff:      0.538D-05 0.676D-05-0.165D-04-0.895D-04-0.432D-03-0.117D-02
 Coeff:     -0.189D-02-0.339D-02-0.685D-03 0.192D-01 0.655D-01 0.337D+00
 Coeff:      0.586D+00
 Gap=     0.161 Goal=   None    Shift=    0.000
 RMSDP=1.79D-07 MaxDP=1.46D-05 DE=-1.64D-09 OVMax= 4.00D-06

 Cycle  14  Pass 1  IDiag  1:
 RMSU=  7.73D-08    CP:  7.13D-01  9.77D-01  6.89D-01  8.25D-01  7.88D-01
                    CP:  7.01D-01  7.83D-01  7.27D-01  6.25D-01  8.16D-01
                    CP:  7.58D-01  7.23D-01  8.04D-01
 E= -1440.47932386141     Delta-E=       -0.000000000238 Rises=F Damp=F
 DIIS: error= 9.23D-08 at cycle  14 NSaved=  14.
 NSaved=14 IEnMin=14 EnMin= -1440.47932386141     IErMin=14 ErrMin= 9.23D-08
 ErrMax= 9.23D-08 EMaxC= 1.00D-01 BMatC= 1.88D-11 BMatP= 2.57D-10
 IDIUse=1 WtCom= 1.00D+00 WtEn= 0.00D+00
 Coeff-Com:  0.172D-05 0.333D-05-0.247D-06-0.177D-04-0.135D-03-0.433D-03
 Coeff-Com: -0.812D-03-0.220D-02-0.299D-02 0.234D-03 0.737D-02 0.105D+00
 Coeff-Com:  0.269D+00 0.625D+00
 Coeff:      0.172D-05 0.333D-05-0.247D-06-0.177D-04-0.135D-03-0.433D-03
 Coeff:     -0.812D-03-0.220D-02-0.299D-02 0.234D-03 0.737D-02 0.105D+00
 Coeff:      0.269D+00 0.625D+00
 Gap=     0.161 Goal=   None    Shift=    0.000
 RMSDP=5.13D-08 MaxDP=2.65D-06 DE=-2.38D-10 OVMax= 2.08D-06

 Cycle  15  Pass 1  IDiag  1:
 RMSU=  2.46D-08    CP:  7.13D-01  9.77D-01  6.89D-01  8.25D-01  7.88D-01
                    CP:  7.01D-01  7.83D-01  7.27D-01  6.25D-01  8.18D-01
                    CP:  7.52D-01  7.37D-01  8.43D-01  8.58D-01
 E= -1440.47932386152     Delta-E=       -0.000000000104 Rises=F Damp=F
 DIIS: error= 4.61D-08 at cycle  15 NSaved=  15.
 NSaved=15 IEnMin=15 EnMin= -1440.47932386152     IErMin=15 ErrMin= 4.61D-08
 ErrMax= 4.61D-08 EMaxC= 1.00D-01 BMatC= 5.20D-12 BMatP= 1.88D-11
 IDIUse=1 WtCom= 1.00D+00 WtEn= 0.00D+00
 Coeff-Com:  0.455D-06 0.113D-05 0.216D-05-0.333D-06-0.289D-04-0.125D-03
 Coeff-Com: -0.257D-03-0.956D-03-0.181D-02-0.221D-02-0.446D-02 0.222D-01
 Coeff-Com:  0.910D-01 0.399D+00 0.498D+00
 Coeff:      0.455D-06 0.113D-05 0.216D-05-0.333D-06-0.289D-04-0.125D-03
 Coeff:     -0.257D-03-0.956D-03-0.181D-02-0.221D-02-0.446D-02 0.222D-01
 Coeff:      0.910D-01 0.399D+00 0.498D+00
 Gap=     0.161 Goal=   None    Shift=    0.000
 RMSDP=2.38D-08 MaxDP=1.47D-06 DE=-1.04D-10 OVMax= 6.81D-07

 Cycle  16  Pass 1  IDiag  1:
 RMSU=  1.33D-08    CP:  7.13D-01  9.77D-01  6.89D-01  8.25D-01  7.88D-01
                    CP:  7.01D-01  7.83D-01  7.27D-01  6.25D-01  8.18D-01
                    CP:  7.55D-01  7.36D-01  8.58D-01  8.50D-01  8.88D-01
 E= -1440.47932386140     Delta-E=        0.000000000119 Rises=F Damp=F
 DIIS: error= 1.33D-08 at cycle  16 NSaved=  16.
 NSaved=16 IEnMin=15 EnMin= -1440.47932386152     IErMin=16 ErrMin= 1.33D-08
 ErrMax= 1.33D-08 EMaxC= 1.00D-01 BMatC= 3.99D-13 BMatP= 5.20D-12
 IDIUse=1 WtCom= 1.00D+00 WtEn= 0.00D+00
 Coeff-Com:  0.940D-07 0.130D-06 0.113D-05 0.115D-05-0.188D-05-0.247D-04
 Coeff-Com: -0.482D-04-0.279D-03-0.651D-03-0.109D-02-0.331D-02 0.896D-03
 Coeff-Com:  0.193D-01 0.151D+00 0.263D+00 0.571D+00
 Coeff:      0.940D-07 0.130D-06 0.113D-05 0.115D-05-0.188D-05-0.247D-04
 Coeff:     -0.482D-04-0.279D-03-0.651D-03-0.109D-02-0.331D-02 0.896D-03
 Coeff:      0.193D-01 0.151D+00 0.263D+00 0.571D+00
 Gap=     0.161 Goal=   None    Shift=    0.000
 DSYEVD returned Info=       93634 IAlg= 4 N=   609 NDim=   609 NE2=      857478 trying DSYEV.
 RMSDP=1.66D-08 MaxDP=9.58D-07 DE= 1.19D-10 OVMax= 1.75D-07

 Cycle  17  Pass 1  IDiag  1:
 RMSU=  8.70D-09    CP:  7.13D-01  9.77D-01  6.89D-01  8.25D-01  7.88D-01
                    CP:  7.01D-01  7.83D-01  7.27D-01  6.25D-01  8.18D-01
                    CP:  7.54D-01  7.36D-01  8.68D-01  8.66D-01  8.92D-01
                    CP:  1.16D+00
 E= -1440.47932386154     Delta-E=       -0.000000000136 Rises=F Damp=F
 DIIS: error= 4.21D-09 at cycle  17 NSaved=  17.
 NSaved=17 IEnMin=17 EnMin= -1440.47932386154     IErMin=17 ErrMin= 4.21D-09
 ErrMax= 4.21D-09 EMaxC= 1.00D-01 BMatC= 7.07D-14 BMatP= 3.99D-13
 IDIUse=1 WtCom= 1.00D+00 WtEn= 0.00D+00
 Coeff-Com:  0.682D-08-0.791D-07 0.466D-06 0.878D-06 0.382D-05 0.481D-05
 Coeff-Com:  0.129D-04-0.220D-04-0.123D-03-0.332D-03-0.147D-02-0.330D-02
 Coeff-Com: -0.301D-02 0.318D-01 0.801D-01 0.346D+00 0.550D+00
 Coeff:      0.682D-08-0.791D-07 0.466D-06 0.878D-06 0.382D-05 0.481D-05
 Coeff:      0.129D-04-0.220D-04-0.123D-03-0.332D-03-0.147D-02-0.330D-02
 Coeff:     -0.301D-02 0.318D-01 0.801D-01 0.346D+00 0.550D+00
 Gap=     0.161 Goal=   None    Shift=    0.000
 RMSDP=1.59D-08 MaxDP=1.00D-06 DE=-1.36D-10 OVMax= 4.31D-08

 Cycle  18  Pass 1  IDiag  1:
 RMSU=  4.90D-09    CP:  7.13D-01  9.77D-01  6.89D-01  8.25D-01  7.88D-01
                    CP:  7.01D-01  7.83D-01  7.27D-01  6.25D-01  8.19D-01
                    CP:  7.55D-01  7.35D-01  8.79D-01  8.70D-01  9.02D-01
                    CP:  1.33D+00  1.68D+00
 E= -1440.47932386149     Delta-E=        0.000000000049 Rises=F Damp=F
 DIIS: error= 1.27D-09 at cycle  18 NSaved=  18.
 NSaved=18 IEnMin=17 EnMin= -1440.47932386154     IErMin=18 ErrMin= 1.27D-09
 ErrMax= 1.27D-09 EMaxC= 1.00D-01 BMatC= 4.00D-15 BMatP= 7.07D-14
 IDIUse=1 WtCom= 1.00D+00 WtEn= 0.00D+00
 Coeff-Com: -0.415D-08-0.616D-07 0.176D-06 0.444D-06 0.235D-05 0.502D-05
 Coeff-Com:  0.111D-04 0.901D-05-0.173D-04-0.934D-04-0.518D-03-0.178D-02
 Coeff-Com: -0.309D-02 0.480D-02 0.188D-01 0.134D+00 0.267D+00 0.582D+00
 Coeff:     -0.415D-08-0.616D-07 0.176D-06 0.444D-06 0.235D-05 0.502D-05
 Coeff:      0.111D-04 0.901D-05-0.173D-04-0.934D-04-0.518D-03-0.178D-02
 Coeff:     -0.309D-02 0.480D-02 0.188D-01 0.134D+00 0.267D+00 0.582D+00
 Gap=     0.161 Goal=   None    Shift=    0.000
 RMSDP=2.00D-08 MaxDP=1.48D-06 DE= 4.91D-11 OVMax= 1.63D-08

 Cycle  19  Pass 1  IDiag  1:
 RMSU=  3.21D-09    CP:  7.13D-01  9.77D-01  6.89D-01  8.25D-01  7.88D-01
                    CP:  7.01D-01  7.83D-01  7.26D-01  6.25D-01  8.19D-01
                    CP:  7.54D-01  7.33D-01  8.88D-01  8.65D-01  9.01D-01
                    CP:  1.52D+00  2.35D+00  2.12D+00
 E= -1440.47932386148     Delta-E=        0.000000000007 Rises=F Damp=F
 DIIS: error= 8.71D-10 at cycle  19 NSaved=  19.
 NSaved=19 IEnMin=17 EnMin= -1440.47932386154     IErMin=19 ErrMin= 8.71D-10
 ErrMax= 8.71D-10 EMaxC= 1.00D-01 BMatC= 1.06D-15 BMatP= 4.00D-15
 IDIUse=1 WtCom= 1.00D+00 WtEn= 0.00D+00
 Large coefficients: NSaved= 19 BigCof=    0.00 CofMax=   10.00 Det=-5.98D-15
 Inversion failed.  Reducing to 18 matrices.
 Large coefficients: NSaved= 18 BigCof=    0.00 CofMax=   10.00 Det=-6.03D-15
 Inversion failed.  Reducing to 17 matrices.
 Large coefficients: NSaved= 17 BigCof=    0.00 CofMax=   10.00 Det=-6.13D-15
 Inversion failed.  Reducing to 16 matrices.
 Large coefficients: NSaved= 16 BigCof=    0.00 CofMax=   10.00 Det=-6.32D-15
 Inversion failed.  Reducing to 15 matrices.
 Coeff-Com:  0.156D-06 0.919D-06 0.218D-05 0.730D-05 0.165D-04 0.350D-04
 Coeff-Com:  0.628D-04-0.743D-04-0.750D-03-0.381D-02-0.766D-02-0.101D-02
 Coeff-Com:  0.251D-01 0.339D+00 0.649D+00
 Coeff:      0.156D-06 0.919D-06 0.218D-05 0.730D-05 0.165D-04 0.350D-04
 Coeff:      0.628D-04-0.743D-04-0.750D-03-0.381D-02-0.766D-02-0.101D-02
 Coeff:      0.251D-01 0.339D+00 0.649D+00
 Gap=     0.161 Goal=   None    Shift=    0.000
 RMSDP=3.24D-08 MaxDP=2.56D-06 DE= 6.82D-12 OVMax= 6.34D-09

 Cycle  20  Pass 1  IDiag  1:
 Restarting incremental Fock formation.
 E= -1440.47932386133     Delta-E=        0.000000000153 Rises=F Damp=F
 DIIS: error= 1.90D-07 at cycle  20 NSaved=  16.
 NSaved=16 IEnMin=13 EnMin= -1440.47932386154     IErMin=15 ErrMin= 8.71D-10
 ErrMax= 1.90D-07 EMaxC= 1.00D-01 BMatC= 1.43D-11 BMatP= 1.06D-15
 IDIUse=1 WtCom= 1.00D+00 WtEn= 0.00D+00
 Large coefficients: NSaved= 16 BigCof=    0.00 CofMax=   10.00 Det=-3.50D-15
 Inversion failed.  Reducing to 15 matrices.
 Coeff-Com:  0.384D-06 0.823D-06 0.358D-05 0.104D-04 0.281D-04 0.682D-04
 Coeff-Com:  0.361D-04-0.477D-03-0.340D-02-0.768D-02-0.358D-02 0.191D-01
 Coeff-Com:  0.337D+00 0.659D+00-0.183D-03
 Coeff:      0.384D-06 0.823D-06 0.358D-05 0.104D-04 0.281D-04 0.682D-04
 Coeff:      0.361D-04-0.477D-03-0.340D-02-0.768D-02-0.358D-02 0.191D-01
 Coeff:      0.337D+00 0.659D+00-0.183D-03
 Gap=     0.161 Goal=   None    Shift=    0.000
 RMSDP=1.33D-09 MaxDP=6.82D-08 DE= 1.53D-10 OVMax= 4.45D-10

 SCF Done:  E(RB3LYP) =  -1440.47932386     A.U. after   20 cycles
             Convg  =    0.1326D-08             -V/T =  2.0053
 KE= 1.432926964051D+03 PE=-7.111368857532D+03 EE= 2.370550105753D+03
 Leave Link  502 at Fri May  5 15:30:00 2017, MaxMem=  524288000 cpu:   12870.4
 (Enter /home/ubuntu/g09/l801.exe)
 Range of M.O.s used for correlation:     1   609
 NBasis=   609 NAE=    83 NBE=    83 NFC=     0 NFV=     0
 NROrb=    609 NOA=    83 NOB=    83 NVA=   526 NVB=   526

 **** Warning!!: The largest alpha MO coefficient is  0.11858982D+03

 Leave Link  801 at Fri May  5 15:30:00 2017, MaxMem=  524288000 cpu:       0.1
 (Enter /home/ubuntu/g09/l1101.exe)
 Using compressed storage, NAtomX=    33.
 Will process  34 centers per pass.
 Leave Link 1101 at Fri May  5 15:30:02 2017, MaxMem=  524288000 cpu:      11.2
 (Enter /home/ubuntu/g09/l1102.exe)
 Symmetrizing basis deriv contribution to polar:
 IMax=3 JMax=2 DiffMx= 0.00D+00
 Leave Link 1102 at Fri May  5 15:30:02 2017, MaxMem=  524288000 cpu:       1.0
 (Enter /home/ubuntu/g09/l1110.exe)
 Forming Gx(P) for the SCF density, NAtomX=    33.
 Integral derivatives from FoFDir/FoFCou, PRISM(SPDF).
 Do as many integral derivatives as possible in FoFDir.
 G2DrvN: MDV=     524287632.
 G2DrvN: will do    34 centers at a time, making    1 passes doing MaxLOS=2.
 Calling FoFCou, ICntrl=  3107 FMM=F I1Cent=   0 AccDes= 0.00D+00.
 FoFCou: FMM=F IPFlag=           0 FMFlag=      100000 FMFlg1=           0
         NFxFlg=           0 DoJE=F BraDBF=F KetDBF=F FulRan=T
         Omega=  0.000000  0.000000  1.000000  0.000000  0.000000 ICntrl=    3107 IOpCl=  0
         NMat0=    1 NMatS0=    1 NMatT0=    0 NMatD0=    1 NMtDS0=    0 NMtDT0=    0
         I1Cent=           0 NGrid=           0.
 Symmetry not used in FoFCou.
 FoFDir/FoFCou used for L=0 through L=2.
 End of G2Drv Frequency-dependent properties file   721 does not exist.
 End of G2Drv Frequency-dependent properties file   722 does not exist.
 Leave Link 1110 at Fri May  5 15:59:56 2017, MaxMem=  524288000 cpu:   12532.2
 (Enter /home/ubuntu/g09/l1002.exe)
 Minotr:  Closed shell wavefunction.
          IDoAtm=111111111111111111111111111111111
          Direct CPHF calculation.
          Differentiating once with respect to electric field.
                with respect to dipole field.
          Differentiating once with respect to nuclear coordinates.
          Requested convergence is 1.0D-08 RMS, and 1.0D-07 maximum.
          Secondary convergence is 1.0D-12 RMS, and 1.0D-12 maximum.
          NewPWx=T KeepS1=F KeepF1=F KeepIn=T MapXYZ=F SortEE=F KeepMc=T.
          MDV=     524287666 using IRadAn=       4.
 Generate precomputed XC quadrature information.
          Solving linear equations simultaneously, MaxMat=       0.
 Integrals replicated using symmetry in FoFDir.
 MinBra= 0 MaxBra= 2 Meth= 1.
 IRaf=       0 NMat= 102 IRICut=     255 DoRegI=T DoRafI=T ISym2E= 2 JSym2E=2.
          There are   102 degrees of freedom in the 1st order CPHF.  IDoFFX=5.
     99 vectors produced by pass  0 Test12= 4.37D-14 1.00D-09 XBig12= 3.19D+02 6.77D+00.
 AX will form    99 AO Fock derivatives at one time.
     99 vectors produced by pass  1 Test12= 4.37D-14 1.00D-09 XBig12= 1.15D+02 3.29D+00.
     99 vectors produced by pass  2 Test12= 4.37D-14 1.00D-09 XBig12= 1.61D+00 1.59D-01.
     99 vectors produced by pass  3 Test12= 4.37D-14 1.00D-09 XBig12= 1.05D-02 9.98D-03.
     99 vectors produced by pass  4 Test12= 4.37D-14 1.00D-09 XBig12= 3.81D-05 4.57D-04.
     99 vectors produced by pass  5 Test12= 4.37D-14 1.00D-09 XBig12= 7.96D-08 2.45D-05.
     60 vectors produced by pass  6 Test12= 4.37D-14 1.00D-09 XBig12= 1.12D-10 8.36D-07.
      3 vectors produced by pass  7 Test12= 4.37D-14 1.00D-09 XBig12= 1.78D-13 3.24D-08.
      3 vectors produced by pass  8 Test12= 4.37D-14 1.00D-09 XBig12= 1.21D-14 9.59D-09.
      3 vectors produced by pass  9 Test12= 4.37D-14 1.00D-09 XBig12= 7.31D-16 3.31D-09.
 Inverted reduced A of dimension   663 with in-core refinement.
 FullF1:  Do perturbations    1 to     3.
 Isotropic polarizability for W=    0.000000      232.12 Bohr**3.
 End of Minotr Frequency-dependent properties file   721 does not exist.
 End of Minotr Frequency-dependent properties file   722 does not exist.
 Leave Link 1002 at Fri May  5 19:10:23 2017, MaxMem=  524288000 cpu:   79838.5
 (Enter /home/ubuntu/g09/l601.exe)
 Copying SCF densities to generalized density rwf, IOpCl= 0 IROHF=0.

 **********************************************************************

            Population analysis using the SCF density.

 **********************************************************************

 Orbital symmetries:
       Occupied  (A) (A) (A) (A) (A) (A) (A) (A) (A) (A) (A) (A)
                 (A) (A) (A) (A) (A) (A) (A) (A) (A) (A) (A) (A)
                 (A) (A) (A) (A) (A) (A) (A) (A) (A) (A) (A) (A)
                 (A) (A) (A) (A) (A) (A) (A) (A) (A) (A) (A) (A)
                 (A) (A) (A) (A) (A) (A) (A) (A) (A) (A) (A) (A)
                 (A) (A) (A) (A) (A) (A) (A) (A) (A) (A) (A) (A)
                 (A) (A) (A) (A) (A) (A) (A) (A) (A) (A) (A)
       Virtual   (A) (A) (A) (A) (A) (A) (A) (A) (A) (A) (A) (A)
                 (A) (A) (A) (A) (A) (A) (A) (A) (A) (A) (A) (A)
                 (A) (A) (A) (A) (A) (A) (A) (A) (A) (A) (A) (A)
                 (A) (A) (A) (A) (A) (A) (A) (A) (A) (A) (A) (A)
                 (A) (A) (A) (A) (A) (A) (A) (A) (A) (A) (A) (A)
                 (A) (A) (A) (A) (A) (A) (A) (A) (A) (A) (A) (A)
                 (A) (A) (A) (A) (A) (A) (A) (A) (A) (A) (A) (A)
                 (A) (A) (A) (A) (A) (A) (A) (A) (A) (A) (A) (A)
                 (A) (A) (A) (A) (A) (A) (A) (A) (A) (A) (A) (A)
                 (A) (A) (A) (A) (A) (A) (A) (A) (A) (A) (A) (A)
                 (A) (A) (A) (A) (A) (A) (A) (A) (A) (A) (A) (A)
                 (A) (A) (A) (A) (A) (A) (A) (A) (A) (A) (A) (A)
                 (A) (A) (A) (A) (A) (A) (A) (A) (A) (A) (A) (A)
                 (A) (A) (A) (A) (A) (A) (A) (A) (A) (A) (A) (A)
                 (A) (A) (A) (A) (A) (A) (A) (A) (A) (A) (A) (A)
                 (A) (A) (A) (A) (A) (A) (A) (A) (A) (A) (A) (A)
                 (A) (A) (A) (A) (A) (A) (A) (A) (A) (A) (A) (A)
                 (A) (A) (A) (A) (A) (A) (A) (A) (A) (A) (A) (A)
                 (A) (A) (A) (A) (A) (A) (A) (A) (A) (A) (A) (A)
                 (A) (A) (A) (A) (A) (A) (A) (A) (A) (A) (A) (A)
                 (A) (A) (A) (A) (A) (A) (A) (A) (A) (A) (A) (A)
                 (A) (A) (A) (A) (A) (A) (A) (A) (A) (A) (A) (A)
                 (A) (A) (A) (A) (A) (A) (A) (A) (A) (A) (A) (A)
                 (A) (A) (A) (A) (A) (A) (A) (A) (A) (A) (A) (A)
                 (A) (A) (A) (A) (A) (A) (A) (A) (A) (A) (A) (A)
                 (A) (A) (A) (A) (A) (A) (A) (A) (A) (A) (A) (A)
                 (A) (A) (A) (A) (A) (A) (A) (A) (A) (A) (A) (A)
                 (A) (A) (A) (A) (A) (A) (A) (A) (A) (A) (A) (A)
                 (A) (A) (A) (A) (A) (A) (A) (A) (A) (A) (A) (A)
                 (A) (A) (A) (A) (A) (A) (A) (A) (A) (A) (A) (A)
                 (A) (A) (A) (A) (A) (A) (A) (A) (A) (A) (A) (A)
                 (A) (A) (A) (A) (A) (A) (A) (A) (A) (A) (A) (A)
                 (A) (A) (A) (A) (A) (A) (A) (A) (A) (A) (A) (A)
                 (A) (A) (A) (A) (A) (A) (A) (A) (A) (A) (A) (A)
                 (A) (A) (A) (A) (A) (A) (A) (A) (A) (A) (A) (A)
                 (A) (A) (A) (A) (A) (A) (A) (A) (A) (A) (A) (A)
                 (A) (A) (A) (A) (A) (A) (A) (A) (A) (A) (A) (A)
                 (A) (A) (A) (A) (A) (A) (A) (A) (A) (A) (A) (A)
                 (A) (A) (A) (A) (A) (A) (A) (A) (A) (A) (A) (A)
                 (A) (A) (A) (A) (A) (A) (A) (A) (A) (A) (A) (A)
                 (A) (A) (A) (A) (A) (A) (A) (A) (A) (A) (A) (A)
                 (A) (A) (A) (A) (A) (A) (A) (A) (A) (A) (A) (A)
                 (A) (A) (A) (A) (A) (A) (A) (A) (A) (A) (A) (A)
                 (A) (A) (A) (A) (A) (A) (A) (A) (A) (A)
 The electronic state is 1-A.
 Alpha  occ. eigenvalues --  -89.14889 -19.23149 -19.19896 -19.19895 -19.17041
 Alpha  occ. eigenvalues --  -19.17021 -14.58715 -14.48942 -14.43507 -10.28124
 Alpha  occ. eigenvalues --  -10.27455 -10.25264 -10.24249 -10.24230 -10.24080
 Alpha  occ. eigenvalues --  -10.24015 -10.23834 -10.23390 -10.23376 -10.22424
 Alpha  occ. eigenvalues --  -10.22417 -10.21174  -8.17709  -6.14169  -6.13984
 Alpha  occ. eigenvalues --   -6.13847  -1.24910  -1.16226  -1.11940  -1.07637
 Alpha  occ. eigenvalues --   -1.02672  -1.01533  -0.92060  -0.90320  -0.84896
 Alpha  occ. eigenvalues --   -0.82316  -0.80240  -0.78819  -0.76551  -0.74355
 Alpha  occ. eigenvalues --   -0.69044  -0.66582  -0.66119  -0.64986  -0.61958
 Alpha  occ. eigenvalues --   -0.60635  -0.58462  -0.57505  -0.56131  -0.55370
 Alpha  occ. eigenvalues --   -0.54151  -0.51963  -0.51466  -0.51001  -0.49232
 Alpha  occ. eigenvalues --   -0.49062  -0.48356  -0.47324  -0.46997  -0.46470
 Alpha  occ. eigenvalues --   -0.46072  -0.45638  -0.45057  -0.44336  -0.41647
 Alpha  occ. eigenvalues --   -0.41060  -0.40054  -0.39853  -0.39428  -0.37960
 Alpha  occ. eigenvalues --   -0.37038  -0.35957  -0.34013  -0.33795  -0.33456
 Alpha  occ. eigenvalues --   -0.33199  -0.32435  -0.31635  -0.31408  -0.30392
 Alpha  occ. eigenvalues --   -0.29395  -0.29221  -0.28129
 Alpha virt. eigenvalues --   -0.12042  -0.08425  -0.07347  -0.05895  -0.05102
 Alpha virt. eigenvalues --   -0.02773  -0.02565  -0.01504  -0.00631  -0.00538
 Alpha virt. eigenvalues --    0.00326   0.00469   0.01156   0.01743   0.02085
 Alpha virt. eigenvalues --    0.02454   0.02652   0.02844   0.03367   0.03839
 Alpha virt. eigenvalues --    0.03916   0.04651   0.05288   0.05432   0.06086
 Alpha virt. eigenvalues --    0.06363   0.06790   0.06950   0.07271   0.07716
 Alpha virt. eigenvalues --    0.08055   0.08129   0.08200   0.08529   0.08534
 Alpha virt. eigenvalues --    0.08817   0.08885   0.09274   0.09399   0.09905
 Alpha virt. eigenvalues --    0.09957   0.10013   0.10183   0.10594   0.10765
 Alpha virt. eigenvalues --    0.10994   0.11150   0.11442   0.11719   0.11962
 Alpha virt. eigenvalues --    0.12124   0.12524   0.12739   0.12863   0.13195
 Alpha virt. eigenvalues --    0.13610   0.13775   0.13996   0.14832   0.14871
 Alpha virt. eigenvalues --    0.15134   0.15285   0.15793   0.16127   0.16375
 Alpha virt. eigenvalues --    0.17046   0.17209   0.17588   0.17761   0.17983
 Alpha virt. eigenvalues --    0.18158   0.18648   0.18997   0.19579   0.19689
 Alpha virt. eigenvalues --    0.20369   0.20679   0.21040   0.21359   0.21555
 Alpha virt. eigenvalues --    0.21941   0.22066   0.22460   0.22655   0.22785
 Alpha virt. eigenvalues --    0.22876   0.23415   0.23549   0.23960   0.24102
 Alpha virt. eigenvalues --    0.24173   0.24582   0.24623   0.25008   0.25393
 Alpha virt. eigenvalues --    0.25670   0.25946   0.26039   0.26463   0.26654
 Alpha virt. eigenvalues --    0.26936   0.27342   0.27843   0.27850   0.28277
 Alpha virt. eigenvalues --    0.28550   0.28804   0.29083   0.29152   0.29428
 Alpha virt. eigenvalues --    0.29694   0.29928   0.30188   0.30318   0.30454
 Alpha virt. eigenvalues --    0.30715   0.30910   0.31528   0.31781   0.31856
 Alpha virt. eigenvalues --    0.32363   0.32731   0.33038   0.33221   0.33502
 Alpha virt. eigenvalues --    0.34005   0.34392   0.34657   0.35026   0.35337
 Alpha virt. eigenvalues --    0.35549   0.36023   0.36107   0.36807   0.37101
 Alpha virt. eigenvalues --    0.37457   0.37756   0.37855   0.38999   0.39609
 Alpha virt. eigenvalues --    0.40054   0.40304   0.40572   0.40974   0.41450
 Alpha virt. eigenvalues --    0.41599   0.41945   0.42307   0.42505   0.42983
 Alpha virt. eigenvalues --    0.43412   0.43471   0.43819   0.44405   0.44597
 Alpha virt. eigenvalues --    0.45068   0.45712   0.46009   0.47077   0.47753
 Alpha virt. eigenvalues --    0.48091   0.48672   0.49013   0.49463   0.49606
 Alpha virt. eigenvalues --    0.49688   0.50092   0.50638   0.51082   0.51646
 Alpha virt. eigenvalues --    0.52063   0.52324   0.53030   0.53173   0.53818
 Alpha virt. eigenvalues --    0.53979   0.54328   0.54875   0.55471   0.55494
 Alpha virt. eigenvalues --    0.56111   0.56215   0.56699   0.56897   0.57592
 Alpha virt. eigenvalues --    0.57688   0.57970   0.58028   0.59163   0.59212
 Alpha virt. eigenvalues --    0.59557   0.59730   0.60563   0.60683   0.60954
 Alpha virt. eigenvalues --    0.61153   0.61617   0.61963   0.62258   0.62680
 Alpha virt. eigenvalues --    0.63157   0.63349   0.63600   0.64172   0.64285
 Alpha virt. eigenvalues --    0.64580   0.65471   0.65917   0.66204   0.66594
 Alpha virt. eigenvalues --    0.66962   0.68010   0.68174   0.68938   0.69192
 Alpha virt. eigenvalues --    0.69844   0.70495   0.70794   0.71043   0.71387
 Alpha virt. eigenvalues --    0.72427   0.72587   0.72760   0.73478   0.73868
 Alpha virt. eigenvalues --    0.74213   0.74701   0.74926   0.75708   0.75860
 Alpha virt. eigenvalues --    0.76549   0.76886   0.77132   0.77668   0.77764
 Alpha virt. eigenvalues --    0.78188   0.78861   0.79750   0.80026   0.81099
 Alpha virt. eigenvalues --    0.81826   0.82425   0.82923   0.83386   0.84284
 Alpha virt. eigenvalues --    0.84644   0.84806   0.85560   0.85701   0.86867
 Alpha virt. eigenvalues --    0.87472   0.88136   0.89051   0.89919   0.90872
 Alpha virt. eigenvalues --    0.91449   0.91571   0.91924   0.92681   0.93305
 Alpha virt. eigenvalues --    0.93938   0.94018   0.94586   0.94967   0.95735
 Alpha virt. eigenvalues --    0.96974   0.97614   0.97816   0.98388   0.99119
 Alpha virt. eigenvalues --    1.00163   1.00883   1.01122   1.01440   1.02401
 Alpha virt. eigenvalues --    1.03513   1.03978   1.04404   1.04672   1.05072
 Alpha virt. eigenvalues --    1.05541   1.06520   1.07167   1.08070   1.08243
 Alpha virt. eigenvalues --    1.10073   1.10156   1.11356   1.12442   1.12847
 Alpha virt. eigenvalues --    1.14284   1.14613   1.14781   1.15736   1.16647
 Alpha virt. eigenvalues --    1.17342   1.17577   1.18982   1.20105   1.20827
 Alpha virt. eigenvalues --    1.21603   1.22275   1.23569   1.23843   1.24112
 Alpha virt. eigenvalues --    1.25266   1.26283   1.27353   1.28453   1.28948
 Alpha virt. eigenvalues --    1.29282   1.29484   1.29695   1.30307   1.30819
 Alpha virt. eigenvalues --    1.31857   1.31959   1.32586   1.33538   1.33832
 Alpha virt. eigenvalues --    1.34249   1.34833   1.35311   1.35955   1.36524
 Alpha virt. eigenvalues --    1.37696   1.38136   1.38379   1.38983   1.39768
 Alpha virt. eigenvalues --    1.40660   1.42082   1.42333   1.42546   1.42995
 Alpha virt. eigenvalues --    1.43913   1.44450   1.44842   1.45053   1.45310
 Alpha virt. eigenvalues --    1.46214   1.46327   1.46550   1.47318   1.47777
 Alpha virt. eigenvalues --    1.48392   1.49228   1.49949   1.50286   1.51006
 Alpha virt. eigenvalues --    1.51221   1.52221   1.52923   1.53646   1.54072
 Alpha virt. eigenvalues --    1.54567   1.55818   1.56994   1.57347   1.58605
 Alpha virt. eigenvalues --    1.59371   1.60703   1.60918   1.61656   1.62125
 Alpha virt. eigenvalues --    1.62615   1.62965   1.63229   1.64080   1.64488
 Alpha virt. eigenvalues --    1.65531   1.66830   1.67534   1.68127   1.68631
 Alpha virt. eigenvalues --    1.69354   1.70439   1.70457   1.71374   1.72424
 Alpha virt. eigenvalues --    1.73307   1.74026   1.75363   1.75667   1.76889
 Alpha virt. eigenvalues --    1.77601   1.78400   1.80445   1.81168   1.82219
 Alpha virt. eigenvalues --    1.82506   1.84136   1.84633   1.84995   1.85389
 Alpha virt. eigenvalues --    1.86532   1.87286   1.88035   1.88278   1.88544
 Alpha virt. eigenvalues --    1.89238   1.90447   1.90638   1.92035   1.93076
 Alpha virt. eigenvalues --    1.93522   1.94460   1.94936   1.96168   1.97042
 Alpha virt. eigenvalues --    1.97413   1.98303   1.99498   2.00857   2.01251
 Alpha virt. eigenvalues --    2.01689   2.02802   2.03110   2.04729   2.05218
 Alpha virt. eigenvalues --    2.05390   2.06007   2.06709   2.07115   2.07984
 Alpha virt. eigenvalues --    2.08623   2.09155   2.10646   2.12143   2.14215
 Alpha virt. eigenvalues --    2.14821   2.15891   2.16684   2.17841   2.17970
 Alpha virt. eigenvalues --    2.19007   2.19559   2.20480   2.20795   2.22115
 Alpha virt. eigenvalues --    2.23188   2.23748   2.26513   2.27305   2.28984
 Alpha virt. eigenvalues --    2.30779   2.32196   2.33594   2.34218   2.34989
 Alpha virt. eigenvalues --    2.36778   2.40694   2.41065   2.41561   2.42874
 Alpha virt. eigenvalues --    2.44086   2.47284   2.47916   2.50598   2.51051
 Alpha virt. eigenvalues --    2.52113   2.53035   2.54096   2.55115   2.56723
 Alpha virt. eigenvalues --    2.61853   2.63052   2.64439   2.67157   2.67633
 Alpha virt. eigenvalues --    2.70120   2.71820   2.73178   2.76995   2.77207
 Alpha virt. eigenvalues --    2.79090   2.84024   2.87599   2.88623   2.90841
 Alpha virt. eigenvalues --    2.93287   2.94303   2.96151   2.99877   3.01629
 Alpha virt. eigenvalues --    3.05146   3.07009   3.17717   3.21741   3.25354
 Alpha virt. eigenvalues --    3.26675   3.27448   3.27926   3.28343   3.28855
 Alpha virt. eigenvalues --    3.29583   3.33895   3.34371   3.35139   3.35182
 Alpha virt. eigenvalues --    3.36693   3.37838   3.38214   3.38757   3.40491
 Alpha virt. eigenvalues --    3.41698   3.42641   3.43589   3.44091   3.45204
 Alpha virt. eigenvalues --    3.47830   3.49777   3.51782   3.54084   3.55806
 Alpha virt. eigenvalues --    3.58545   3.59709   3.62536   3.68618   3.78460
 Alpha virt. eigenvalues --    3.81936   3.82281   3.90673   4.08708   4.36859
 Alpha virt. eigenvalues --    4.51395
          Condensed to atoms (all electrons):
              1          2          3          4          5          6
     1  C   19.709960  -8.534087   5.194868  -6.421578   3.352409  -6.883859
     2  C   -8.534087  20.287025  -8.770411   4.085961  -6.157571   4.939275
     3  C    5.194868  -8.770411  17.572646  -7.716394   4.825292  -5.840442
     4  C   -6.421578   4.085961  -7.716394  19.620862  -7.721077   4.657737
     5  C    3.352409  -6.157571   4.825292  -7.721077  18.708532  -6.637596
     6  C   -6.883859   4.939275  -5.840442   4.657737  -6.637596  14.449023
     7  H   -2.729998   1.183115  -0.678676   0.221860  -0.044718   1.319325
     8  H    0.945320  -3.053387   1.760368  -0.023314   0.208848  -0.790035
     9  H    0.193258   0.148842   1.665968  -2.837074   0.807359  -0.762606
    10  H    0.012280   0.212736  -0.653618   1.038860  -2.618548   1.320266
    11  N    0.435497  -0.338115   0.320698  -0.322385   0.342081  -0.849225
    12  O    0.096284  -0.057179   0.022101  -0.128060   0.039444   0.110793
    13  O    0.042326  -0.117351   0.017645  -0.054132   0.099705   0.093110
    14  N   -0.521403   0.996872  -0.884310   0.754517  -0.570786   0.365177
    15  N   -0.084701  -0.141730  -0.169792  -0.009413   0.061490   0.001415
    16  C    0.035232   0.029622  -0.010376  -0.032097  -0.013655   0.009998
    17  C    0.007985   0.054269  -0.075419  -0.000245  -0.007932   0.016533
    18  C    0.007281  -0.007336  -0.007456  -0.002376   0.007969   0.005454
    19  C   -0.008893  -0.030904   0.050213  -0.011090   0.010766  -0.005574
    20  C   -0.002681  -0.089616   0.075885   0.020047   0.013666  -0.009770
    21  C   -0.039355   0.023580  -0.040994   0.018443   0.024958  -0.034967
    22  H    0.007741  -0.000852  -0.000914  -0.003573   0.003168  -0.002982
    23  H   -0.000454   0.000629  -0.000697   0.000467  -0.000193   0.000243
    24  H   -0.001192   0.001922  -0.000915   0.000782  -0.000479  -0.000051
    25  H    0.004117  -0.012431   0.012452  -0.004054   0.003973  -0.001850
    26  S   -0.033245  -0.037927  -0.014838   0.052297  -0.010194   0.017854
    27  O    0.046757   0.235584  -0.268770  -0.139656   0.020652  -0.000243
    28  O   -0.005293  -0.002099   0.015913  -0.000663   0.000975  -0.003782
    29  O    0.002590   0.014228  -0.006905  -0.007630  -0.001505  -0.001459
    30  C   -0.002137   0.001387   0.001960  -0.000624   0.000746  -0.001177
    31  H    0.000160  -0.000335  -0.000140  -0.000078   0.000060   0.000394
    32  H   -0.000239   0.000271   0.000067   0.000046  -0.000035  -0.000073
    33  H    0.000287  -0.000400   0.000094  -0.000268   0.000262  -0.000065
              7          8          9         10         11         12
     1  C   -2.729998   0.945320   0.193258   0.012280   0.435497   0.096284
     2  C    1.183115  -3.053387   0.148842   0.212736  -0.338115  -0.057179
     3  C   -0.678676   1.760368   1.665968  -0.653618   0.320698   0.022101
     4  C    0.221860  -0.023314  -2.837074   1.038860  -0.322385  -0.128060
     5  C   -0.044718   0.208848   0.807359  -2.618548   0.342081   0.039444
     6  C    1.319325  -0.790035  -0.762606   1.320266  -0.849225   0.110793
     7  H    3.032658  -0.243196   0.013165  -0.024273  -0.166175  -0.009534
     8  H   -0.243196   3.291135  -0.025904   0.015856   0.017686  -0.001617
     9  H    0.013165  -0.025904   2.966074  -0.225164   0.016321  -0.002277
    10  H   -0.024273   0.015856  -0.225164   2.944582  -0.146952  -0.018046
    11  N   -0.166175   0.017686   0.016321  -0.146952   7.953330  -0.498431
    12  O   -0.009534  -0.001617  -0.002277  -0.018046  -0.498431   9.176865
    13  O   -0.015005  -0.003276  -0.000977  -0.011989  -0.495052  -0.049009
    14  N    0.011261  -0.198282  -0.183593   0.002313  -0.016699  -0.000196
    15  N    0.001497   0.022025   0.025154   0.000481  -0.000177   0.000039
    16  C    0.008287  -0.030663  -0.000266  -0.000514  -0.000666   0.000022
    17  C   -0.005864   0.024091   0.000298   0.000072   0.000016  -0.000018
    18  C    0.001816  -0.005856  -0.000344   0.000145   0.000171   0.000005
    19  C   -0.001189  -0.000077   0.000876   0.000137   0.000379  -0.000050
    20  C    0.002007   0.004583  -0.003279   0.000278   0.000040   0.000022
    21  C   -0.003191   0.015551   0.007659   0.000035   0.000618  -0.000009
    22  H    0.000319   0.003019  -0.000042  -0.000021   0.000040   0.000013
    23  H   -0.000321   0.000040  -0.000004   0.000019  -0.000033  -0.000003
    24  H   -0.000078   0.000267   0.000043  -0.000054   0.000022  -0.000003
    25  H    0.000215  -0.001209  -0.000216   0.000087   0.000027   0.000011
    26  S    0.001135  -0.008301  -0.002125  -0.000321  -0.000785   0.000021
    27  O    0.004366  -0.042487   0.016442   0.000329   0.000530  -0.000069
    28  O    0.000162  -0.003795  -0.000104   0.000008   0.000039   0.000000
    29  O   -0.000036   0.001641   0.000412  -0.000019   0.000023   0.000000
    30  C   -0.000011   0.000449  -0.000015   0.000089   0.000127  -0.000009
    31  H    0.000071  -0.000076   0.000008   0.000010   0.000022   0.000001
    32  H   -0.000015   0.000038   0.000003  -0.000003   0.000010  -0.000001
    33  H    0.000044   0.000003  -0.000019   0.000022   0.000008  -0.000002
             13         14         15         16         17         18
     1  C    0.042326  -0.521403  -0.084701   0.035232   0.007985   0.007281
     2  C   -0.117351   0.996872  -0.141730   0.029622   0.054269  -0.007336
     3  C    0.017645  -0.884310  -0.169792  -0.010376  -0.075419  -0.007456
     4  C   -0.054132   0.754517  -0.009413  -0.032097  -0.000245  -0.002376
     5  C    0.099705  -0.570786   0.061490  -0.013655  -0.007932   0.007969
     6  C    0.093110   0.365177   0.001415   0.009998   0.016533   0.005454
     7  H   -0.015005   0.011261   0.001497   0.008287  -0.005864   0.001816
     8  H   -0.003276  -0.198282   0.022025  -0.030663   0.024091  -0.005856
     9  H   -0.000977  -0.183593   0.025154  -0.000266   0.000298  -0.000344
    10  H   -0.011989   0.002313   0.000481  -0.000514   0.000072   0.000145
    11  N   -0.495052  -0.016699  -0.000177  -0.000666   0.000016   0.000171
    12  O   -0.049009  -0.000196   0.000039   0.000022  -0.000018   0.000005
    13  O    9.174052   0.000187  -0.000074   0.000055  -0.000009  -0.000047
    14  N    0.000187   9.881489  -2.219636   0.001479  -0.000715  -0.000479
    15  N   -0.000074  -2.219636   9.881902   0.022650   0.043458  -0.023464
    16  C    0.000055   0.001479   0.022650  29.415958 -10.113546   3.695071
    17  C   -0.000009  -0.000715   0.043458 -10.113546  27.254938  -8.415681
    18  C   -0.000047  -0.000479  -0.023464   3.695071  -8.415681  18.668832
    19  C    0.000015  -0.007931   0.035940  -7.264991   2.516409  -8.130250
    20  C   -0.000026   0.009695  -0.068935  -0.194454  -7.432013   4.935975
    21  C   -0.000037  -0.058156  -0.055725  -8.463578   3.272857  -6.148425
    22  H    0.000023  -0.002700   0.000095  -3.526689   1.263743  -0.838491
    23  H    0.000008  -0.000147   0.000475   1.503656  -3.096390   1.257914
    24  H    0.000002   0.000313   0.000921   0.208169   0.104629   1.843654
    25  H    0.000006  -0.005709   0.006463   0.283259   0.134946  -0.961672
    26  S    0.000020  -0.100183   0.030031   0.161506  -0.250971   0.134154
    27  O   -0.000099  -0.055197  -0.268823  -0.113351   0.014480  -0.019902
    28  O   -0.000002   0.028479   0.005175   0.088121  -0.058727  -0.013784
    29  O    0.000000   0.029860   0.008758  -0.106262   0.001496   0.003111
    30  C   -0.000037  -0.000350  -0.001119   0.043366  -0.323768  -0.462551
    31  H   -0.000037   0.000004  -0.000087   0.002259   0.004549   0.101187
    32  H   -0.000002   0.000014  -0.000014   0.017566  -0.023321   0.068234
    33  H   -0.000002  -0.000062  -0.000144  -0.132257  -0.248287   0.369142
             19         20         21         22         23         24
     1  C   -0.008893  -0.002681  -0.039355   0.007741  -0.000454  -0.001192
     2  C   -0.030904  -0.089616   0.023580  -0.000852   0.000629   0.001922
     3  C    0.050213   0.075885  -0.040994  -0.000914  -0.000697  -0.000915
     4  C   -0.011090   0.020047   0.018443  -0.003573   0.000467   0.000782
     5  C    0.010766   0.013666   0.024958   0.003168  -0.000193  -0.000479
     6  C   -0.005574  -0.009770  -0.034967  -0.002982   0.000243  -0.000051
     7  H   -0.001189   0.002007  -0.003191   0.000319  -0.000321  -0.000078
     8  H   -0.000077   0.004583   0.015551   0.003019   0.000040   0.000267
     9  H    0.000876  -0.003279   0.007659  -0.000042  -0.000004   0.000043
    10  H    0.000137   0.000278   0.000035  -0.000021   0.000019  -0.000054
    11  N    0.000379   0.000040   0.000618   0.000040  -0.000033   0.000022
    12  O   -0.000050   0.000022  -0.000009   0.000013  -0.000003  -0.000003
    13  O    0.000015  -0.000026  -0.000037   0.000023   0.000008   0.000002
    14  N   -0.007931   0.009695  -0.058156  -0.002700  -0.000147   0.000313
    15  N    0.035940  -0.068935  -0.055725   0.000095   0.000475   0.000921
    16  C   -7.264991  -0.194454  -8.463578  -3.526689   1.503656   0.208169
    17  C    2.516409  -7.432013   3.272857   1.263743  -3.096390   0.104629
    18  C   -8.130250   4.935975  -6.148425  -0.838491   1.257914   1.843654
    19  C   28.962968 -11.430630   4.170580   0.048930   0.077996  -3.980623
    20  C  -11.430630  30.262897  -8.542586   0.316328   0.224303   1.378344
    21  C    4.170580  -8.542586  20.424319   1.694115  -0.925334  -1.038749
    22  H    0.048930   0.316328   1.694115   3.475131  -0.293856   0.018034
    23  H    0.077996   0.224303  -0.925334  -0.293856   3.377648  -0.055658
    24  H   -3.980623   1.378344  -1.038749   0.018034  -0.055658   3.716923
    25  H    1.326144  -3.679945   1.862663  -0.039801   0.021541  -0.348836
    26  S   -0.332084   0.108554  -1.278171  -0.122405   0.004359   0.008381
    27  O    0.008037  -0.015917   0.061016  -0.013533  -0.000074   0.000905
    28  O    0.019937  -0.122565   0.218781  -0.023770  -0.001743   0.000637
    29  O   -0.067578   0.099564   0.178067   0.003815   0.000458  -0.001926
    30  C   -1.496129  -0.119888   0.009990   0.055377  -0.039520   0.282590
    31  H   -0.062437  -0.034643   0.017995   0.001637  -0.027313   0.016586
    32  H   -0.035189  -0.021508   0.026020  -0.000477  -0.030156   0.014199
    33  H    0.362840   0.061063   0.082968   0.001106   0.018307  -0.161092
             25         26         27         28         29         30
     1  C    0.004117  -0.033245   0.046757  -0.005293   0.002590  -0.002137
     2  C   -0.012431  -0.037927   0.235584  -0.002099   0.014228   0.001387
     3  C    0.012452  -0.014838  -0.268770   0.015913  -0.006905   0.001960
     4  C   -0.004054   0.052297  -0.139656  -0.000663  -0.007630  -0.000624
     5  C    0.003973  -0.010194   0.020652   0.000975  -0.001505   0.000746
     6  C   -0.001850   0.017854  -0.000243  -0.003782  -0.001459  -0.001177
     7  H    0.000215   0.001135   0.004366   0.000162  -0.000036  -0.000011
     8  H   -0.001209  -0.008301  -0.042487  -0.003795   0.001641   0.000449
     9  H   -0.000216  -0.002125   0.016442  -0.000104   0.000412  -0.000015
    10  H    0.000087  -0.000321   0.000329   0.000008  -0.000019   0.000089
    11  N    0.000027  -0.000785   0.000530   0.000039   0.000023   0.000127
    12  O    0.000011   0.000021  -0.000069   0.000000   0.000000  -0.000009
    13  O    0.000006   0.000020  -0.000099  -0.000002   0.000000  -0.000037
    14  N   -0.005709  -0.100183  -0.055197   0.028479   0.029860  -0.000350
    15  N    0.006463   0.030031  -0.268823   0.005175   0.008758  -0.001119
    16  C    0.283259   0.161506  -0.113351   0.088121  -0.106262   0.043366
    17  C    0.134946  -0.250971   0.014480  -0.058727   0.001496  -0.323768
    18  C   -0.961672   0.134154  -0.019902  -0.013784   0.003111  -0.462551
    19  C    1.326144  -0.332084   0.008037   0.019937  -0.067578  -1.496129
    20  C   -3.679945   0.108554  -0.015917  -0.122565   0.099564  -0.119888
    21  C    1.862663  -1.278171   0.061016   0.218781   0.178067   0.009990
    22  H   -0.039801  -0.122405  -0.013533  -0.023770   0.003815   0.055377
    23  H    0.021541   0.004359  -0.000074  -0.001743   0.000458  -0.039520
    24  H   -0.348836   0.008381   0.000905   0.000637  -0.001926   0.282590
    25  H    3.561770  -0.165547  -0.024336   0.005449  -0.016842   0.046576
    26  S   -0.165547  16.070984   0.011432  -0.253121  -0.222029  -0.041970
    27  O   -0.024336   0.011432   9.227794   0.021962   0.022110  -0.006069
    28  O    0.005449  -0.253121   0.021962   8.958196   0.027325   0.000286
    29  O   -0.016842  -0.222029   0.022110   0.027325   8.929771   0.000844
    30  C    0.046576  -0.041970  -0.006069   0.000286   0.000844   7.089397
    31  H    0.000580  -0.001488  -0.000422   0.000052   0.000037   0.316888
    32  H    0.000620   0.000344  -0.000003  -0.000141   0.000002   0.306831
    33  H    0.004098   0.000675  -0.000336   0.000050   0.000124  -0.540186
             31         32         33
     1  C    0.000160  -0.000239   0.000287
     2  C   -0.000335   0.000271  -0.000400
     3  C   -0.000140   0.000067   0.000094
     4  C   -0.000078   0.000046  -0.000268
     5  C    0.000060  -0.000035   0.000262
[...]
 0014824,0.00007357,-0.09025879,-0.03978980,-0.10086707,-0.01677096,-0.
 00575087,-0.02380581,0.08115342,-0.00005987,0.00002313,0.00002947,0.00
 007447,0.00004115,-0.00007329,0.00077586,0.00013158,-0.00032978,-0.000
 09241,-0.00003697,-0.00003263,0.00001583,0.00007183,-0.00000517,0.0000
 5459,0.00002276,0.00005410,0.00003486,-0.00001778,-0.00002400,0.000035
 02,-0.00014486,-0.00004552,0.00000898,-0.00002960,-0.00001429,0.000016
 16,-0.00001314,-0.00000596,0.00002992,-0.00009537,0.00006354,-0.000022
 55,0.00003254,-0.00002037,-0.00002417,0.00007579,-0.00003563,-0.002207
 94,0.00216009,0.00056835,0.00066247,-0.00479766,-0.00042178,-0.0003189
 3,-0.00060057,-0.00067251,0.00025444,0.00016509,-0.00076359,-0.0001891
 4,0.00051230,-0.00077233,0.00093432,-0.00124719,-0.00213448,0.00005471
 ,-0.00564038,0.00530270,-0.00626496,0.00074239,-0.02542159,-0.00011794
 ,-0.00107633,-0.00118633,0.00002205,-0.00020156,0.00011505,0.00028559,
 -0.00078756,0.00000277,-0.00029783,-0.00011879,-0.00024202,-0.04063734
 ,-0.14252787,-0.15334116,-0.00269868,0.01132002,-0.00438559,0.05048844
 ,0.12506309,0.00023137,0.00023123,0.00032092,-0.00062046,-0.00023469,-
 0.00030604,0.00123889,0.00070714,-0.00056543,-0.00008043,-0.00027654,0
 .00017588,-0.00002524,0.00011078,0.00003304,-0.00028883,-0.00030656,-0
 .00012339,-0.00004694,-0.00005622,-0.00004396,-0.00011303,-0.00013335,
 -0.00017221,0.00012040,-0.00002874,0.00001916,0.00001246,-0.00002822,0
 .00000230,0.00043697,0.00058670,-0.00014781,-0.00017052,-0.00016181,-0
 .00001646,-0.00012030,-0.00028668,0.00020672,-0.00376830,0.00132071,0.
 00024180,0.00491470,-0.00690335,0.00005352,-0.00065276,0.00106458,-0.0
 0371609,0.00094495,-0.00090764,0.00163912,-0.00036335,0.00064786,0.000
 05924,0.00054052,-0.00010251,-0.00034191,-0.00058870,-0.00325694,0.002
 35858,-0.00424489,0.00287360,-0.00594369,-0.00022870,-0.00149285,0.001
 81826,0.00010962,-0.00037559,-0.00000469,0.00018678,-0.00037044,0.0000
 4164,-0.00021486,0.00064621,0.00064178,-0.09670483,-0.14830656,-0.4408
 6013,-0.00659411,0.00111504,0.00092371,0.11533638,0.16717277,0.4592751
 5,0.00038566,0.00047143,0.00035664,-0.00088666,-0.00048074,0.00016884,
 0.00137156,0.00089285,-0.00026958,-0.00001309,-0.00056736,0.00024909,-
 0.00015385,0.00012207,-0.00005931,-0.00063571,-0.00066638,-0.00026815,
 -0.00004194,-0.00001322,-0.00002355,0.00007894,0.00000178,-0.00034471,
 0.00011331,0.00000317,0.00003281,-0.00001946,-0.00002966,0.00003225,0.
 00104682,0.00134771,-0.00010112,-0.00050975,-0.00045422,-0.00023590,-0
 .00028671,-0.00062550,0.00028483,-0.00421753,0.00004572,-0.00063289,0.
 00846355,-0.00836918,0.00169118,0.00182625,-0.00103559,0.00037475,-0.0
 0093585,0.00068925,0.00079995,0.00009333,-0.00010051,-0.00048036,-0.00
 021713,-0.00018327,-0.00043606,0.00058044,0.00080369,-0.00001410,0.006
 81254,0.00452377,0.00069933,0.00025318,-0.00012778,-0.00010497,-0.0002
 2526,-0.00005649,-0.00005510,-0.00007102,-0.00002577,0.00004547,-0.000
 49118,-0.00001622,-0.00030053,-0.09478919,-0.05508148,0.10317478,-0.01
 734884,-0.00822062,0.02171200,0.01342687,-0.00084091,-0.00923538,0.086
 41345,-0.00001652,0.00007144,0.00003098,-0.00000861,-0.00003764,0.0000
 4310,0.00077414,-0.00000051,0.00051594,0.00004973,0.00002127,0.0000070
 0,-0.00000062,-0.00000281,-0.00000537,0.00001406,0.00001255,0.00000436
 ,0.00003077,-0.00000818,-0.00001757,0.00005797,-0.00009055,-0.00009284
 ,-0.00003230,-0.00001046,-0.00000822,0.00000559,-0.00000948,0.00000385
 ,0.00009158,-0.00004859,0.00010407,-0.00006954,0.00000529,-0.00006709,
 -0.00004221,0.00006923,-0.00006121,-0.00241087,0.00241552,-0.00076482,
 0.00142326,-0.00549506,0.00023922,-0.00065531,-0.00525978,-0.00600198,
 0.00120194,-0.00147030,0.00191800,-0.00024136,0.00055028,0.00062980,0.
 00047540,0.00003905,0.00055012,-0.00044701,-0.00046174,0.00111945,-0.0
 0670314,-0.00182915,0.02542320,-0.00033274,-0.00010081,0.00020760,0.00
 032470,-0.00079708,-0.00008935,0.00003535,-0.00024526,-0.00013416,-0.0
 0015920,-0.00120148,0.00079888,-0.05604772,-0.17954493,0.18241272,-0.0
 0354714,0.01066100,0.00536116,-0.00153937,0.01751239,-0.01289637,0.067
 73767,0.16585920,-0.00012904,-0.00023959,-0.00010526,0.00027954,0.0002
 2325,-0.00014098,-0.00102157,-0.00036692,-0.00062272,-0.00005101,0.000
 21127,-0.00012464,0.00007147,-0.00001490,0.00009644,0.00025347,0.00026
 419,0.00007928,-0.00001552,-0.00000113,0.00000732,-0.00015016,-0.00000
 887,0.00018176,0.00006932,-0.00005150,-0.00000809,0.00002327,0.0000209
 5,-0.00002332,-0.00048918,-0.00049878,-0.00012732,0.00027864,0.0001946
 9,0.00021063,0.00013994,0.00017737,-0.00000873,0.00348715,-0.00122216,
 0.00030150,-0.00468759,0.00614285,0.00012703,0.00070433,0.00235298,0.0
 0182740,-0.00049681,0.00002701,-0.00001632,0.00035597,-0.00057456,0.00
 014443,-0.00090335,0.00075019,0.00177973,0.00033233,-0.00060161,-0.003
 64129,0.00348745,-0.00222947,-0.00300885,0.00026040,-0.00071278,0.0005
 8910,-0.00013710,0.00026529,0.00006477,-0.00011266,0.00035890,0.000014
 37,0.00040402,0.00117830,0.00196290,0.09961764,0.17710632,-0.40104439,
 0.00562047,-0.00024470,0.00249532,0.00977061,0.01655167,-0.01584875,-0
 .11701201,-0.19929175,0.41466288,0.00001636,0.00000082,0.00000190,-0.0
 0001521,-0.00000937,0.00000526,0.00004135,0.00004046,-0.00000728,-0.00
 000127,-0.00002049,0.00000160,-0.00000766,0.00001291,-0.00000287,-0.00
 001495,-0.00001930,-0.00000193,-0.00000681,0.00000485,0.00000145,0.000
 00030,0.00000645,-0.00000376,0.00000166,0.00000118,0.00000081,0.000001
 78,-0.00000017,0.00000070,0.00001529,0.00005713,-0.00004581,0.00000092
 ,-0.00001393,0.00001671,-0.00000126,-0.00004031,0.00002967,-0.00012600
 ,0.00005357,0.00000501,0.00000415,-0.00015030,-0.00000964,0.00520730,-
 0.00002028,0.00009909,0.00303130,0.00482948,0.00141411,-0.07790908,0.0
 2831837,0.00059523,0.00648050,0.00620812,-0.00059532,0.00763409,0.0012
 7893,-0.00017914,-0.00034703,0.00044676,-0.00030255,-0.00015161,-0.000
 05885,-0.00001756,-0.00207645,-0.00059837,-0.00020582,-0.00380943,-0.0
 0107153,0.00036443,-0.00034914,-0.00006270,0.00003670,-0.00066056,-0.0
 0035933,-0.00002048,-0.00020160,0.00035649,0.00001355,0.00004550,-0.00
 006317,-0.00005067,-0.00001873,-0.00003184,0.00006302,0.52858513,-0.00
 000126,-0.00000700,-0.00001051,0.00001720,0.00001401,-0.00000095,-0.00
 004376,-0.00002340,-0.00000467,0.00000383,0.00001478,0.00000390,0.0000
 0006,-0.00000743,0.00000240,0.00001118,0.00002034,0.00000193,-0.000000
 19,0.00000119,0.00000183,-0.00000204,-0.00000319,0.00000527,-0.0000015
 9,-0.00000109,-0.00000250,0.00000051,0.00000072,-0.00000071,-0.0000287
 4,-0.00002836,-0.00001000,0.00001684,0.00001035,0.00001189,0.00001062,
 0.00000879,-0.00000148,0.00013230,-0.00004339,0.00001204,-0.00005541,0
 .00012278,-0.00001949,0.00008274,0.00498096,-0.00145505,0.00520182,-0.
 02150637,-0.00714224,0.02855100,-0.20980268,-0.00426193,0.00595543,-0.
 02087858,0.00336763,0.00133184,0.00168768,0.00045937,0.00026314,-0.002
 30853,0.00142052,-0.00003342,-0.00000278,0.00015383,-0.00057288,0.0006
 8954,0.00136292,-0.00108808,0.00122317,-0.00178774,-0.00004565,-0.0001
 3097,-0.00019464,-0.00058641,0.00105575,0.00016683,0.00016553,-0.00026
 029,-0.00000792,0.00006394,-0.00013637,-0.00016488,0.00009045,-0.00016
 688,0.00008777,0.01000272,0.48509618,0.00001244,0.00001403,0.00001588,
 -0.00004578,-0.00002633,0.00000020,0.00011077,0.00003790,0.00000520,-0
 .00001892,-0.00003209,-0.00000037,0.00000790,0.00001985,-0.00000664,-0
 .00003317,-0.00004225,0.00000378,0.00000250,-0.00000264,-0.00000505,0.
 00000496,0.00000123,-0.00001134,0.00000796,0.00000122,0.00000232,-0.00
 000161,-0.00000021,0.00000159,0.00008818,0.00008039,0.00003314,-0.0000
 4630,-0.00003379,-0.00003744,-0.00002883,-0.00002590,0.00000035,-0.000
 29147,0.00008973,-0.00001247,0.00025077,-0.00035524,0.00001045,0.00058
 213,-0.00318737,-0.00509127,0.00625572,-0.03002028,0.00291739,0.002132
 98,-0.01126506,-0.08958877,-0.00584482,0.02731542,0.00391662,-0.000322
 18,0.00061629,-0.00414640,-0.00026808,0.00208481,-0.00069876,0.0002804
 2,-0.00130674,0.00007788,0.00015255,-0.00048241,0.00139190,-0.00021009
 ,0.00152484,0.00053242,-0.00022035,0.00106006,0.00020994,0.00065051,-0
 .00163344,-0.00039445,-0.00042137,0.00059622,0.00004323,-0.00007196,0.
 00018829,0.00040412,-0.00014013,0.00026945,0.00005678,-0.00056402,0.00
 572780,0.58191749,0.00000009,0.00000300,0.00000102,0.00000487,-0.00000
 336,0.00000099,0.00000194,0.00000386,0.00000264,0.00000105,0.00000367,
 -0.00000200,0.00000031,-0.00000301,-0.00000274,-0.00000203,-0.00000027
 ,-0.00000198,-0.00000492,0.00000214,0.00000656,-0.00000229,0.00000171,
 0.00000183,-0.00000140,0.00000110,0.00000043,-0.00000220,0.00000123,0.
 00000054,-0.00001631,-0.00000124,-0.00000330,0.00000689,0.00000215,0.0
 0000136,0.00000938,-0.00000305,-0.00000086,0.00000427,-0.00000148,-0.0
 0000213,-0.00001380,0.00000936,0.00000711,0.00007880,-0.00042216,-0.00
 012242,0.00082890,0.00025115,0.00034034,0.00637519,0.00581559,-0.00484
 265,-0.00054523,0.00079312,-0.00014917,-0.00057875,0.00025759,-0.00010
 141,-0.00009019,0.00021116,-0.00028991,0.00002599,-0.00003543,0.000015
 26,-0.00015996,-0.00030155,-0.00019504,0.00019630,0.00010572,-0.000056
 62,0.00003523,0.00007921,-0.00000639,0.00000948,-0.00002416,-0.0000285
 3,0.00000327,-0.00000558,-0.00000552,-0.00000107,-0.00000510,0.0000013
 6,0.00000894,0.00000833,-0.00000669,-0.17365777,-0.09825488,0.09064162
 ,0.18819919,-0.00002092,-0.00001389,-0.00000938,0.00002330,0.00002131,
 -0.00001030,-0.00008059,-0.00004621,0.00000641,0.00000593,0.00003072,-
 0.00000359,0.00000374,-0.00001880,0.00000724,0.00003305,0.00003759,0.0
 0000834,0.00000895,-0.00000549,-0.00000414,-0.00000560,-0.00000670,0.0
 0000741,-0.00000542,0.00000013,-0.00000186,0.00000006,-0.00000058,-0.0
 0000115,-0.00003625,-0.00009440,0.00004103,0.00001202,0.00002648,-0.00
 000644,0.00000195,0.00005893,-0.00003391,0.00020212,-0.00003732,0.0000
 0045,-0.00023013,0.00027356,-0.00000454,0.00096698,0.00020541,0.000087
 62,0.00103961,0.00120174,0.00110612,-0.02135389,-0.01915202,0.01586697
 ,0.00061315,-0.00283953,-0.00180438,0.00139491,-0.00002150,0.00064172,
 -0.00005624,-0.00060364,-0.00003266,-0.00008572,-0.00002589,-0.0000090
 4,-0.00067375,-0.00003138,-0.00062789,-0.00048109,-0.00011342,0.000056
 80,0.00001374,-0.00025084,-0.00001884,-0.00061811,0.00082971,0.0000842
 9,0.00034043,-0.00036537,-0.00000693,0.00008401,-0.00018931,-0.0001299
 1,0.00009407,-0.00018800,0.00003441,-0.09845812,-0.11517658,0.06452074
 ,0.10530359,0.12813267,0.00000162,-0.00000484,0.00000209,0.00000724,0.
 00000516,0.00000430,-0.00001283,-0.00000127,-0.00000074,0.00000066,0.0
 0000185,-0.00000461,-0.00000402,0.00000268,-0.00000341,0.00000145,0.00
 000049,-0.00000231,0.00000132,0.00000300,0.00000514,-0.00000037,-0.000
 00246,0.00000200,-0.00000018,-0.00000021,-0.00000016,-0.00000090,0.000
 00321,0.00000024,-0.00000012,0.00001698,0.00000341,0.00000013,-0.00000
 772,-0.00000620,0.00000513,-0.00001215,-0.00000182,0.00005156,-0.00003
 128,0.00000555,-0.00000910,0.00004872,-0.00000682,-0.00054370,0.001476
 73,-0.00032394,0.00045441,-0.00216265,-0.00030574,-0.00292864,0.000420
 21,0.00046382,-0.00024216,0.00082175,0.00007094,-0.00027514,-0.0001459
 0,-0.00031159,0.00011797,-0.00078266,0.00075860,-0.00001737,0.00002028
 ,-0.00000685,0.00027835,0.00003903,-0.00014441,0.00039148,0.00006914,0
 .00028525,0.00003142,0.00004161,-0.00000490,0.00006150,0.00048695,0.00
 009074,0.00003762,-0.00014224,-0.00001129,-0.00001725,-0.00001516,-0.0
 0004694,-0.00000366,-0.00003917,0.00002796,0.09099024,0.06411263,-0.10
 533938,-0.09904727,-0.07215434,0.11053491,0.00000408,0.00000355,0.0000
 0106,-0.00001225,-0.00000325,0.00000059,0.00002543,0.00000469,-0.00000
 035,-0.00000514,-0.00000879,0.00000351,0.00000118,0.00000510,-0.000001
 23,-0.00000752,-0.00001058,0.00000318,0.00000218,-0.00000181,-0.000005
 12,0.00000437,-0.00000132,-0.00000562,0.00000324,-0.00000111,0.,0.0000
 0203,-0.00000147,0.00000012,0.00002891,0.00001957,-0.00000004,-0.00001
 385,-0.00000728,-0.00000370,-0.00001137,-0.00000643,0.00000525,-0.0000
 7913,0.00002231,-0.00000231,0.00008940,-0.00010799,0.00000184,0.000297
 85,0.00051523,0.00005410,0.00132378,-0.00025241,-0.00084670,-0.0034148
 4,0.00124342,-0.00170051,-0.00034537,0.00022205,0.00088389,0.00007664,
 -0.00013732,-0.00015988,-0.00002586,-0.00003214,0.00027024,-0.00002237
 ,0.00003338,-0.00000561,-0.00048107,0.00009256,0.00044170,-0.00000985,
 -0.00005154,0.00004480,0.00002583,0.00004189,0.00001435,0.00004742,-0.
 00031378,-0.00000903,-0.00011388,0.00016605,0.00000562,-0.00001643,0.0
 0008040,0.00004664,-0.00000385,0.00005140,0.00000383,-0.24627892,0.045
 10283,-0.10258167,-0.02001068,0.00401331,-0.01063081,0.26668938,-0.000
 01529,-0.00000670,-0.00000723,0.00002546,0.00001265,-0.00000857,-0.000
 06904,-0.00002961,0.00000164,0.00001051,0.00002472,-0.00000172,0.00000
 022,-0.00001578,0.00000863,0.00002508,0.00002766,-0.00000157,0.0000001
 4,-0.00000211,-0.00000017,-0.00000651,0.00000057,0.00000826,-0.0000050
 7,0.00000041,-0.00000121,0.,-0.00000082,-0.00000076,-0.00004839,-0.000
 07438,0.00000944,0.00002144,0.00002535,0.00000985,0.00001118,0.0000388
 5,-0.00001612,0.00018331,-0.00004953,0.00000268,-0.00017085,0.00023800
 ,-0.00000500,-0.00092709,-0.00002083,0.00017265,-0.00091394,0.00062544
 ,0.00092418,0.02899104,-0.00923556,0.01517599,0.00038450,-0.00282982,-
 0.00159049,-0.00134879,-0.00072384,0.00058019,0.00016472,-0.00060483,0
 .00010977,0.00008494,0.00002844,-0.00002290,0.00045352,0.00029686,-0.0
 0051587,0.00053635,0.00006357,0.00008152,0.00011125,-0.00022291,-0.000
 01323,-0.00020646,0.00080557,0.00009252,0.00028422,-0.00037817,-0.0000
 0598,0.00002854,-0.00015193,-0.00011097,0.00005026,-0.00015938,0.00001
 307,0.04549977,-0.05184627,0.02033682,-0.01440070,0.00304463,-0.008065
 28,-0.04955522,0.05988066,-0.00000592,-0.00000283,-0.00000261,0.000010
 29,0.00000754,-0.00000360,-0.00002214,-0.00001315,-0.00000095,0.000001
 70,0.00000729,0.00000079,-0.00000005,-0.00000391,0.00000174,0.00000782
 ,0.00000990,0.00000033,0.00000161,-0.00000101,0.00000019,-0.00000110,-
 0.00000212,0.00000310,-0.00000075,-0.00000077,-0.00000062,0.00000129,-
 0.00000086,-0.00000018,-0.00001084,-0.00002349,0.00000414,0.00000354,0
 .00000798,0.00000224,0.00000207,0.00001265,-0.00000594,0.00005133,-0.0
 0001212,0.00000392,-0.00004154,0.00005307,-0.00000844,-0.00013459,0.00
 154482,-0.00034346,0.00043672,-0.00213480,-0.00030910,0.00235946,0.001
 56886,0.00032531,-0.00004154,0.00093002,0.00006046,0.00032687,-0.00005
 510,-0.00035157,0.00010968,-0.00077198,0.00077470,0.00001276,0.0000267
 9,-0.00000982,-0.00025473,-0.00009661,-0.00014908,-0.00040868,-0.00009
 261,0.00025969,-0.00005045,0.00002656,-0.00000796,-0.00033320,0.000397
 59,0.00010721,0.00008673,-0.00008738,-0.00000413,0.00005073,-0.0000366
 4,-0.00006728,0.00006840,-0.00006334,0.00003297,-0.10268353,0.01975394
 ,-0.09561082,0.01438530,-0.00329161,0.00695581,0.11264397,-0.02370527,
 0.09993452,0.00000262,-0.00000096,0.00000438,-0.00000269,-0.00000221,0
 .00000337,0.00001220,0.00000595,0.00000295,-0.00000256,-0.00000405,-0.
 00000277,0.00000113,0.00000286,-0.00000536,-0.00000392,-0.00000660,0.0
 0000125,0.00000152,0.00000101,0.00000159,0.00000143,-0.00000134,-0.000
 00092,0.00000047,0.00000089,0.00000044,-0.00000272,0.00000303,0.000000
 40,0.00001220,0.00002073,0.00001071,-0.00000597,-0.00001029,-0.0000115
 5,-0.00000041,-0.00000985,-0.00000261,-0.00002196,0.00000167,-0.000003
 00,0.00002302,-0.00002793,0.00000568,0.00043005,0.00012006,0.00033531,
 0.00124742,0.00156508,-0.00030464,-0.00201834,0.00183274,0.00668671,-0
 .00032322,-0.00037601,0.00039022,-0.00011201,-0.00001530,-0.00000502,0
 .00008013,0.00002189,-0.00002813,-0.00019571,0.00005049,0.00000368,-0.
 00026226,-0.00005175,0.00001489,0.00029294,0.00009614,-0.00020744,-0.0
 0003148,-0.00001268,0.00000025,0.00005927,-0.00004183,-0.00000242,-0.0
 0004310,0.00003241,-0.00000563,-0.00002311,0.00001284,-0.00000873,-0.0
 0000909,0.00000360,-0.00001019,-0.04543215,0.00371034,0.00992934,-0.00
 070348,0.00795092,0.02130142,0.00223064,-0.00919911,-0.02657122,0.0447
 9913,-0.00000432,-0.00000482,-0.00000256,0.00000735,0.00000492,-0.0000
 0431,-0.00002795,-0.00001050,-0.00000425,0.00000426,0.00000791,0.00000
 026,-0.00000039,-0.00000404,0.00000529,0.00000968,0.00001112,-0.000000
 99,-0.00000007,-0.00000113,0.00000002,-0.00000428,0.00000038,0.0000034
 3,-0.00000096,-0.00000075,-0.00000089,0.00000084,-0.00000006,-0.000000
 74,-0.00001467,-0.00002451,0.00000439,0.00000676,0.00000788,0.00000282
 ,0.00000351,0.00001296,-0.00000602,0.00007098,-0.00001732,0.00000374,-
 0.00007372,0.00009155,-0.00000701,0.00005521,0.00007926,-0.00173291,0.
 00163671,-0.00609069,0.00131825,0.00093186,-0.01005515,-0.03164304,-0.
 00036887,0.00148669,-0.00197841,-0.00004750,0.00000520,0.00009297,0.00
 003386,-0.00008746,0.00022850,0.00005954,-0.00042704,0.00002557,-0.000
 05736,-0.00001526,-0.00002754,0.00011363,-0.00024758,0.00105187,-0.000
 01412,0.00002416,0.00000454,-0.00015801,0.00030368,-0.00003560,0.00011
 566,-0.00013408,0.00001227,0.00003110,-0.00006093,0.00005421,0.0000209
 8,-0.00008914,0.00009826,0.00386006,-0.07259609,-0.07607136,0.00060827
 ,0.00531799,0.01599689,-0.00112530,0.00123909,0.00604859,-0.00567272,0
 .08127374,-0.00000257,-0.00000495,-0.00000850,0.00001188,0.00000552,-0
 .00000655,-0.00004026,-0.00001149,-0.00000696,0.00000988,0.00001297,0.
 00000388,-0.00000247,-0.00001021,0.00000794,0.00001323,0.00001900,-0.0
 0000212,-0.00000590,-0.00000077,0.00000008,-0.00000549,0.00000463,0.00
 000537,-0.00000286,-0.00000036,-0.00000086,0.00000051,-0.00000142,-0.0
 0000099,-0.00004778,-0.00004816,-0.00002184,0.00002668,0.00002143,0.00
 002419,0.00001426,0.00001817,0.00000318,0.00010231,-0.00002226,0.00000
 453,-0.00011345,0.00014136,-0.00000515,-0.00010271,0.00040911,-0.00011
 095,0.00004546,-0.00041625,0.00065672,-0.00018989,0.00120010,-0.000487
 71,-0.00033370,0.00190667,0.00070309,0.00001929,-0.00015474,0.00021204
 ,0.00000809,-0.00005471,0.00027938,0.00001110,-0.00003610,0.00002487,-
 0.00000611,0.00011232,0.00031888,0.00002806,-0.00021296,0.00055000,0.0
 0000860,-0.00002727,-0.00001133,-0.00019225,0.00030925,0.00001788,0.00
 016825,-0.00018681,0.00000400,0.00003656,-0.00006888,-0.00001015,0.000
 02721,-0.00010565,0.00005809,0.01105087,-0.08158777,-0.29059750,-0.000
 54172,-0.00431866,-0.01268964,0.00152788,-0.00345489,-0.01159158,-0.01
 152295,0.08656378,0.31267770\\-0.00000531,-0.00000604,0.00000068,-0.00
 000200,0.00000314,-0.00000715,-0.00000305,-0.00000063,-0.00000340,0.00
 000246,0.00000249,0.00000279,0.00000020,0.00000037,-0.00000385,0.00000
 342,-0.00000011,0.00000753,0.00000038,0.00000270,-0.00000201,0.0000039
 6,0.00000123,0.00000477,0.00000012,-0.00000183,0.00000045,-0.00000125,
 -0.00000062,-0.00000074,-0.00000054,-0.00000103,-0.00000198,0.00000082
 ,0.00000037,0.00000269,0.00000024,0.00000237,0.00000005,0.00000708,-0.
 00000150,-0.00000128,-0.00000504,0.00000171,-0.00000058,0.00000083,-0.
 00000748,0.00000917,0.00000005,0.00000548,-0.00000543,-0.00000085,0.00
 000034,0.00000931,0.00000051,-0.00000036,-0.00000817,-0.00000035,-0.00
 000255,-0.00000409,-0.00000184,0.00000712,-0.00000770,0.00000040,0.,-0
 .00000139,0.00000004,-0.00000086,0.00000255,-0.00000075,0.00000188,0.0
 0000423,0.00000033,-0.00000237,0.00000339,0.00000560,0.00000365,-0.000
 00404,-0.00000200,-0.00000075,-0.00000094,-0.00000082,-0.00000033,-0.0
 0000223,-0.00000223,-0.00000415,0.00000437,-0.00000085,-0.00000540,-0.
 00000013,0.00000262,0.00000246,-0.00000071,-0.00000192,0.00000061,0.00
 000014,-0.00000024,0.00000010,0.00000369\\\@


 IT IS BY EATING THE LIGHT OF A STAR THAT WE EXIST, 
 IN THE FINAL ANALYSIS, 
 JUST AS IT IS BY PERCEIVING THE LIGHT OF STARS
 THAT WE DEFINE THE WORLD AROUND US.

                                    -- GILBERT GROSVENOR
 Job cpu time:  1 days 10 hours  3 minutes 39.3 seconds.
 File lengths (MBytes):  RWF=   1160 Int=      0 D2E=      0 Chk=     23 Scr=      1
 Normal termination of Gaussian 09 at Fri May  5 19:51:34 2017.
